# vtk DataFile Version 3.0
vtk output
ASCII
DATASET UNSTRUCTURED_GRID
POINTS 289 double
0.000000e+00 0.000000e+00 0.000000e+00
0.000000e+00 6.250000e-04 0.000000e+00
6.250000e-04 0.000000e+00 0.000000e+00
6.250000e-04 6.250000e-04 0.000000e+00
0.000000e+00 1.250000e-03 0.000000e+00
6.250000e-04 1.250000e-03 0.000000e+00
1.250000e-03 1.250000e-03 0.000000e+00
1.250000e-03 6.250000e-04 0.000000e+00
1.250000e-03 0.000000e+00 0.000000e+00
0.000000e+00 1.875000e-03 0.000000e+00
6.250000e-04 1.875000e-03 0.000000e+00
0.000000e+00 2.500000e-03 0.000000e+00
6.250000e-04 2.500000e-03 0.000000e+00
1.250000e-03 2.500000e-03 0.000000e+00
1.250000e-03 1.875000e-03 0.000000e+00
0.000000e+00 3.125000e-03 0.000000e+00
6.250000e-04 3.125000e-03 0.000000e+00
0.000000e+00 3.750000e-03 0.000000e+00
6.250000e-04 3.750000e-03 0.000000e+00
1.250000e-03 3.750000e-03 0.000000e+00
1.250000e-03 3.125000e-03 0.000000e+00
0.000000e+00 4.375000e-03 0.000000e+00
6.250000e-04 4.375000e-03 0.000000e+00
0.000000e+00 5.000000e-03 0.000000e+00
6.250000e-04 5.000000e-03 0.000000e+00
1.250000e-03 5.000000e-03 0.000000e+00
1.250000e-03 4.375000e-03 0.000000e+00
0.000000e+00 5.625000e-03 0.000000e+00
6.250000e-04 5.625000e-03 0.000000e+00
0.000000e+00 6.250000e-03 0.000000e+00
6.250000e-04 6.250000e-03 0.000000e+00
1.250000e-03 6.250000e-03 0.000000e+00
1.250000e-03 5.625000e-03 0.000000e+00
0.000000e+00 6.875000e-03 0.000000e+00
6.250000e-04 6.875000e-03 0.000000e+00
0.000000e+00 7.500000e-03 0.000000e+00
6.250000e-04 7.500000e-03 0.000000e+00
1.250000e-03 7.500000e-03 0.000000e+00
1.250000e-03 6.875000e-03 0.000000e+00
0.000000e+00 8.125000e-03 0.000000e+00
6.250000e-04 8.125000e-03 0.000000e+00
0.000000e+00 8.750000e-03 0.000000e+00
6.250000e-04 8.750000e-03 0.000000e+00
1.250000e-03 8.750000e-03 0.000000e+00
1.250000e-03 8.125000e-03 0.000000e+00
0.000000e+00 9.375000e-03 0.000000e+00
6.250000e-04 9.375000e-03 0.000000e+00
0.000000e+00 1.000000e-02 0.000000e+00
6.250000e-04 1.000000e-02 0.000000e+00
1.250000e-03 1.000000e-02 0.000000e+00
1.250000e-03 9.375000e-03 0.000000e+00
1.875000e-03 0.000000e+00 0.000000e+00
1.875000e-03 6.250000e-04 0.000000e+00
1.875000e-03 1.250000e-03 0.000000e+00
2.500000e-03 1.250000e-03 0.000000e+00
2.500000e-03 6.250000e-04 0.000000e+00
2.500000e-03 0.000000e+00 0.000000e+00
1.875000e-03 1.875000e-03 0.000000e+00
1.875000e-03 2.500000e-03 0.000000e+00
2.500000e-03 2.500000e-03 0.000000e+00
2.500000e-03 1.875000e-03 0.000000e+00
1.875000e-03 3.125000e-03 0.000000e+00
1.875000e-03 3.750000e-03 0.000000e+00
2.500000e-03 3.750000e-03 0.000000e+00
2.500000e-03 3.125000e-03 0.000000e+00
1.875000e-03 4.375000e-03 0.000000e+00
1.875000e-03 5.000000e-03 0.000000e+00
2.500000e-03 5.000000e-03 0.000000e+00
2.500000e-03 4.375000e-03 0.000000e+00
1.875000e-03 5.625000e-03 0.000000e+00
1.875000e-03 6.250000e-03 0.000000e+00
2.500000e-03 6.250000e-03 0.000000e+00
2.500000e-03 5.625000e-03 0.000000e+00
1.875000e-03 6.875000e-03 0.000000e+00
1.875000e-03 7.500000e-03 0.000000e+00
2.500000e-03 7.500000e-03 0.000000e+00
2.500000e-03 6.875000e-03 0.000000e+00
1.875000e-03 8.125000e-03 0.000000e+00
1.875000e-03 8.750000e-03 0.000000e+00
2.500000e-03 8.750000e-03 0.000000e+00
2.500000e-03 8.125000e-03 0.000000e+00
1.875000e-03 9.375000e-03 0.000000e+00
1.875000e-03 1.000000e-02 0.000000e+00
2.500000e-03 1.000000e-02 0.000000e+00
2.500000e-03 9.375000e-03 0.000000e+00
3.125000e-03 0.000000e+00 0.000000e+00
3.125000e-03 6.250000e-04 0.000000e+00
3.125000e-03 1.250000e-03 0.000000e+00
3.750000e-03 1.250000e-03 0.000000e+00
3.750000e-03 6.250000e-04 0.000000e+00
3.750000e-03 0.000000e+00 0.000000e+00
3.125000e-03 1.875000e-03 0.000000e+00
3.125000e-03 2.500000e-03 0.000000e+00
3.750000e-03 2.500000e-03 0.000000e+00
3.750000e-03 1.875000e-03 0.000000e+00
3.125000e-03 3.125000e-03 0.000000e+00
3.125000e-03 3.750000e-03 0.000000e+00
3.750000e-03 3.750000e-03 0.000000e+00
3.750000e-03 3.125000e-03 0.000000e+00
3.125000e-03 4.375000e-03 0.000000e+00
3.125000e-03 5.000000e-03 0.000000e+00
3.750000e-03 5.000000e-03 0.000000e+00
3.750000e-03 4.375000e-03 0.000000e+00
3.125000e-03 5.625000e-03 0.000000e+00
3.125000e-03 6.250000e-03 0.000000e+00
3.750000e-03 6.250000e-03 0.000000e+00
3.750000e-03 5.625000e-03 0.000000e+00
3.125000e-03 6.875000e-03 0.000000e+00
3.125000e-03 7.500000e-03 0.000000e+00
3.750000e-03 7.500000e-03 0.000000e+00
3.750000e-03 6.875000e-03 0.000000e+00
3.125000e-03 8.125000e-03 0.000000e+00
3.125000e-03 8.750000e-03 0.000000e+00
3.750000e-03 8.750000e-03 0.000000e+00
3.750000e-03 8.125000e-03 0.000000e+00
3.125000e-03 9.375000e-03 0.000000e+00
3.125000e-03 1.000000e-02 0.000000e+00
3.750000e-03 1.000000e-02 0.000000e+00
3.750000e-03 9.375000e-03 0.000000e+00
4.375000e-03 0.000000e+00 0.000000e+00
4.375000e-03 6.250000e-04 0.000000e+00
4.375000e-03 1.250000e-03 0.000000e+00
5.000000e-03 1.250000e-03 0.000000e+00
5.000000e-03 6.250000e-04 0.000000e+00
5.000000e-03 0.000000e+00 0.000000e+00
4.375000e-03 1.875000e-03 0.000000e+00
4.375000e-03 2.500000e-03 0.000000e+00
5.000000e-03 2.500000e-03 0.000000e+00
5.000000e-03 1.875000e-03 0.000000e+00
4.375000e-03 3.125000e-03 0.000000e+00
4.375000e-03 3.750000e-03 0.000000e+00
5.000000e-03 3.750000e-03 0.000000e+00
5.000000e-03 3.125000e-03 0.000000e+00
4.375000e-03 4.375000e-03 0.000000e+00
4.375000e-03 5.000000e-03 0.000000e+00
5.000000e-03 5.000000e-03 0.000000e+00
5.000000e-03 4.375000e-03 0.000000e+00
4.375000e-03 5.625000e-03 0.000000e+00
4.375000e-03 6.250000e-03 0.000000e+00
5.000000e-03 6.250000e-03 0.000000e+00
5.000000e-03 5.625000e-03 0.000000e+00
4.375000e-03 6.875000e-03 0.000000e+00
4.375000e-03 7.500000e-03 0.000000e+00
5.000000e-03 7.500000e-03 0.000000e+00
5.000000e-03 6.875000e-03 0.000000e+00
4.375000e-03 8.125000e-03 0.000000e+00
4.375000e-03 8.750000e-03 0.000000e+00
5.000000e-03 8.750000e-03 0.000000e+00
5.000000e-03 8.125000e-03 0.000000e+00
4.375000e-03 9.375000e-03 0.000000e+00
4.375000e-03 1.000000e-02 0.000000e+00
5.000000e-03 1.000000e-02 0.000000e+00
5.000000e-03 9.375000e-03 0.000000e+00
5.625000e-03 0.000000e+00 0.000000e+00
5.625000e-03 6.250000e-04 0.000000e+00
5.625000e-03 1.250000e-03 0.000000e+00
6.250000e-03 1.250000e-03 0.000000e+00
6.250000e-03 6.250000e-04 0.000000e+00
6.250000e-03 0.000000e+00 0.000000e+00
5.625000e-03 1.875000e-03 0.000000e+00
5.625000e-03 2.500000e-03 0.000000e+00
6.250000e-03 2.500000e-03 0.000000e+00
6.250000e-03 1.875000e-03 0.000000e+00
5.625000e-03 3.125000e-03 0.000000e+00
5.625000e-03 3.750000e-03 0.000000e+00
6.250000e-03 3.750000e-03 0.000000e+00
6.250000e-03 3.125000e-03 0.000000e+00
5.625000e-03 4.375000e-03 0.000000e+00
5.625000e-03 5.000000e-03 0.000000e+00
6.250000e-03 5.000000e-03 0.000000e+00
6.250000e-03 4.375000e-03 0.000000e+00
5.625000e-03 5.625000e-03 0.000000e+00
5.625000e-03 6.250000e-03 0.000000e+00
6.250000e-03 6.250000e-03 0.000000e+00
6.250000e-03 5.625000e-03 0.000000e+00
5.625000e-03 6.875000e-03 0.000000e+00
5.625000e-03 7.500000e-03 0.000000e+00
6.250000e-03 7.500000e-03 0.000000e+00
6.250000e-03 6.875000e-03 0.000000e+00
5.625000e-03 8.125000e-03 0.000000e+00
5.625000e-03 8.750000e-03 0.000000e+00
6.250000e-03 8.750000e-03 0.000000e+00
6.250000e-03 8.125000e-03 0.000000e+00
5.625000e-03 9.375000e-03 0.000000e+00
5.625000e-03 1.000000e-02 0.000000e+00
6.250000e-03 1.000000e-02 0.000000e+00
6.250000e-03 9.375000e-03 0.000000e+00
6.875000e-03 0.000000e+00 0.000000e+00
6.875000e-03 6.250000e-04 0.000000e+00
6.875000e-03 1.250000e-03 0.000000e+00
7.500000e-03 1.250000e-03 0.000000e+00
7.500000e-03 6.250000e-04 0.000000e+00
7.500000e-03 0.000000e+00 0.000000e+00
6.875000e-03 1.875000e-03 0.000000e+00
6.875000e-03 2.500000e-03 0.000000e+00
7.500000e-03 2.500000e-03 0.000000e+00
7.500000e-03 1.875000e-03 0.000000e+00
6.875000e-03 3.125000e-03 0.000000e+00
6.875000e-03 3.750000e-03 0.000000e+00
7.500000e-03 3.750000e-03 0.000000e+00
7.500000e-03 3.125000e-03 0.000000e+00
6.875000e-03 4.375000e-03 0.000000e+00
6.875000e-03 5.000000e-03 0.000000e+00
7.500000e-03 5.000000e-03 0.000000e+00
7.500000e-03 4.375000e-03 0.000000e+00
6.875000e-03 5.625000e-03 0.000000e+00
6.875000e-03 6.250000e-03 0.000000e+00
7.500000e-03 6.250000e-03 0.000000e+00
7.500000e-03 5.625000e-03 0.000000e+00
6.875000e-03 6.875000e-03 0.000000e+00
6.875000e-03 7.500000e-03 0.000000e+00
7.500000e-03 7.500000e-03 0.000000e+00
7.500000e-03 6.875000e-03 0.000000e+00
6.875000e-03 8.125000e-03 0.000000e+00
6.875000e-03 8.750000e-03 0.000000e+00
7.500000e-03 8.750000e-03 0.000000e+00
7.500000e-03 8.125000e-03 0.000000e+00
6.875000e-03 9.375000e-03 0.000000e+00
6.875000e-03 1.000000e-02 0.000000e+00
7.500000e-03 1.000000e-02 0.000000e+00
7.500000e-03 9.375000e-03 0.000000e+00
8.125000e-03 0.000000e+00 0.000000e+00
8.125000e-03 6.250000e-04 0.000000e+00
8.125000e-03 1.250000e-03 0.000000e+00
8.750000e-03 1.250000e-03 0.000000e+00
8.750000e-03 6.250000e-04 0.000000e+00
8.750000e-03 0.000000e+00 0.000000e+00
8.125000e-03 1.875000e-03 0.000000e+00
8.125000e-03 2.500000e-03 0.000000e+00
8.750000e-03 2.500000e-03 0.000000e+00
8.750000e-03 1.875000e-03 0.000000e+00
8.125000e-03 3.125000e-03 0.000000e+00
8.125000e-03 3.750000e-03 0.000000e+00
8.750000e-03 3.750000e-03 0.000000e+00
8.750000e-03 3.125000e-03 0.000000e+00
8.125000e-03 4.375000e-03 0.000000e+00
8.125000e-03 5.000000e-03 0.000000e+00
8.750000e-03 5.000000e-03 0.000000e+00
8.750000e-03 4.375000e-03 0.000000e+00
8.125000e-03 5.625000e-03 0.000000e+00
8.125000e-03 6.250000e-03 0.000000e+00
8.750000e-03 6.250000e-03 0.000000e+00
8.750000e-03 5.625000e-03 0.000000e+00
8.125000e-03 6.875000e-03 0.000000e+00
8.125000e-03 7.500000e-03 0.000000e+00
8.750000e-03 7.500000e-03 0.000000e+00
8.750000e-03 6.875000e-03 0.000000e+00
8.125000e-03 8.125000e-03 0.000000e+00
8.125000e-03 8.750000e-03 0.000000e+00
8.750000e-03 8.750000e-03 0.000000e+00
8.750000e-03 8.125000e-03 0.000000e+00
8.125000e-03 9.375000e-03 0.000000e+00
8.125000e-03 1.000000e-02 0.000000e+00
8.750000e-03 1.000000e-02 0.000000e+00
8.750000e-03 9.375000e-03 0.000000e+00
9.375000e-03 0.000000e+00 0.000000e+00
9.375000e-03 6.250000e-04 0.000000e+00
9.375000e-03 1.250000e-03 0.000000e+00
1.000000e-02 1.250000e-03 0.000000e+00
1.000000e-02 6.250000e-04 0.000000e+00
1.000000e-02 0.000000e+00 0.000000e+00
9.375000e-03 1.875000e-03 0.000000e+00
9.375000e-03 2.500000e-03 0.000000e+00
1.000000e-02 2.500000e-03 0.000000e+00
1.000000e-02 1.875000e-03 0.000000e+00
9.375000e-03 3.125000e-03 0.000000e+00
9.375000e-03 3.750000e-03 0.000000e+00
1.000000e-02 3.750000e-03 0.000000e+00
1.000000e-02 3.125000e-03 0.000000e+00
9.375000e-03 4.375000e-03 0.000000e+00
9.375000e-03 5.000000e-03 0.000000e+00
1.000000e-02 5.000000e-03 0.000000e+00
1.000000e-02 4.375000e-03 0.000000e+00
9.375000e-03 5.625000e-03 0.000000e+00
9.375000e-03 6.250000e-03 0.000000e+00
1.000000e-02 6.250000e-03 0.000000e+00
1.000000e-02 5.625000e-03 0.000000e+00
9.375000e-03 6.875000e-03 0.000000e+00
9.375000e-03 7.500000e-03 0.000000e+00
1.000000e-02 7.500000e-03 0.000000e+00
1.000000e-02 6.875000e-03 0.000000e+00
9.375000e-03 8.125000e-03 0.000000e+00
9.375000e-03 8.750000e-03 0.000000e+00
1.000000e-02 8.750000e-03 0.000000e+00
1.000000e-02 8.125000e-03 0.000000e+00
9.375000e-03 9.375000e-03 0.000000e+00
9.375000e-03 1.000000e-02 0.000000e+00
1.000000e-02 1.000000e-02 0.000000e+00
1.000000e-02 9.375000e-03 0.000000e+00

CELLS 256 1280
4 0 1 3 2 
4 4 5 3 1 
4 6 7 3 5 
4 8 2 3 7 
4 4 9 10 5 
4 11 12 10 9 
4 13 14 10 12 
4 6 5 10 14 
4 11 15 16 12 
4 17 18 16 15 
4 19 20 16 18 
4 13 12 16 20 
4 17 21 22 18 
4 23 24 22 21 
4 25 26 22 24 
4 19 18 22 26 
4 23 27 28 24 
4 29 30 28 27 
4 31 32 28 30 
4 25 24 28 32 
4 29 33 34 30 
4 35 36 34 33 
4 37 38 34 36 
4 31 30 34 38 
4 35 39 40 36 
4 41 42 40 39 
4 43 44 40 42 
4 37 36 40 44 
4 41 45 46 42 
4 47 48 46 45 
4 49 50 46 48 
4 43 42 46 50 
4 8 7 52 51 
4 6 53 52 7 
4 54 55 52 53 
4 56 51 52 55 
4 6 14 57 53 
4 13 58 57 14 
4 59 60 57 58 
4 54 53 57 60 
4 13 20 61 58 
4 19 62 61 20 
4 63 64 61 62 
4 59 58 61 64 
4 19 26 65 62 
4 25 66 65 26 
4 67 68 65 66 
4 63 62 65 68 
4 25 32 69 66 
4 31 70 69 32 
4 71 72 69 70 
4 67 66 69 72 
4 31 38 73 70 
4 37 74 73 38 
4 75 76 73 74 
4 71 70 73 76 
4 37 44 77 74 
4 43 78 77 44 
4 79 80 77 78 
4 75 74 77 80 
4 43 50 81 78 
4 49 82 81 50 
4 83 84 81 82 
4 79 78 81 84 
4 56 55 86 85 
4 54 87 86 55 
4 88 89 86 87 
4 90 85 86 89 
4 54 60 91 87 
4 59 92 91 60 
4 93 94 91 92 
4 88 87 91 94 
4 59 64 95 92 
4 63 96 95 64 
4 97 98 95 96 
4 93 92 95 98 
4 63 68 99 96 
4 67 100 99 68 
4 101 102 99 100 
4 97 96 99 102 
4 67 72 103 100 
4 71 104 103 72 
4 105 106 103 104 
4 101 100 103 106 
4 71 76 107 104 
4 75 108 107 76 
4 109 110 107 108 
4 105 104 107 110 
4 75 80 111 108 
4 79 112 111 80 
4 113 114 111 112 
4 109 108 111 114 
4 79 84 115 112 
4 83 116 115 84 
4 117 118 115 116 
4 113 112 115 118 
4 90 89 120 119 
4 88 121 120 89 
4 122 123 120 121 
4 124 119 120 123 
4 88 94 125 121 
4 93 126 125 94 
4 127 128 125 126 
4 122 121 125 128 
4 93 98 129 126 
4 97 130 129 98 
4 131 132 129 130 
4 127 126 129 132 
4 97 102 133 130 
4 101 134 133 102 
4 135 136 133 134 
4 131 130 133 136 
4 101 106 137 134 
4 105 138 137 106 
4 139 140 137 138 
4 135 134 137 140 
4 105 110 141 138 
4 109 142 141 110 
4 143 144 141 142 
4 139 138 141 144 
4 109 114 145 142 
4 113 146 145 114 
4 147 148 145 146 
4 143 142 145 148 
4 113 118 149 146 
4 117 150 149 118 
4 151 152 149 150 
4 147 146 149 152 
4 124 123 154 153 
4 122 155 154 123 
4 156 157 154 155 
4 158 153 154 157 
4 122 128 159 155 
4 127 160 159 128 
4 161 162 159 160 
4 156 155 159 162 
4 127 132 163 160 
4 131 164 163 132 
4 165 166 163 164 
4 161 160 163 166 
4 131 136 167 164 
4 135 168 167 136 
4 169 170 167 168 
4 165 164 167 170 
4 135 140 171 168 
4 139 172 171 140 
4 173 174 171 172 
4 169 168 171 174 
4 139 144 175 172 
4 143 176 175 144 
4 177 178 175 176 
4 173 172 175 178 
4 143 148 179 176 
4 147 180 179 148 
4 181 182 179 180 
4 177 176 179 182 
4 147 152 183 180 
4 151 184 183 152 
4 185 186 183 184 
4 181 180 183 186 
4 158 157 188 187 
4 156 189 188 157 
4 190 191 188 189 
4 192 187 188 191 
4 156 162 193 189 
4 161 194 193 162 
4 195 196 193 194 
4 190 189 193 196 
4 161 166 197 194 
4 165 198 197 166 
4 199 200 197 198 
4 195 194 197 200 
4 165 170 201 198 
4 169 202 201 170 
4 203 204 201 202 
4 199 198 201 204 
4 169 174 205 202 
4 173 206 205 174 
4 207 208 205 206 
4 203 202 205 208 
4 173 178 209 206 
4 177 210 209 178 
4 211 212 209 210 
4 207 206 209 212 
4 177 182 213 210 
4 181 214 213 182 
4 215 216 213 214 
4 211 210 213 216 
4 181 186 217 214 
4 185 218 217 186 
4 219 220 217 218 
4 215 214 217 220 
4 192 191 222 221 
4 190 223 222 191 
4 224 225 222 223 
4 226 221 222 225 
4 190 196 227 223 
4 195 228 227 196 
4 229 230 227 228 
4 224 223 227 230 
4 195 200 231 228 
4 199 232 231 200 
4 233 234 231 232 
4 229 228 231 234 
4 199 204 235 232 
4 203 236 235 204 
4 237 238 235 236 
4 233 232 235 238 
4 203 208 239 236 
4 207 240 239 208 
4 241 242 239 240 
4 237 236 239 242 
4 207 212 243 240 
4 211 244 243 212 
4 245 246 243 244 
4 241 240 243 246 
4 211 216 247 244 
4 215 248 247 216 
4 249 250 247 248 
4 245 244 247 250 
4 215 220 251 248 
4 219 252 251 220 
4 253 254 251 252 
4 249 248 251 254 
4 226 225 256 255 
4 224 257 256 225 
4 258 259 256 257 
4 260 255 256 259 
4 224 230 261 257 
4 229 262 261 230 
4 263 264 261 262 
4 258 257 261 264 
4 229 234 265 262 
4 233 266 265 234 
4 267 268 265 266 
4 263 262 265 268 
4 233 238 269 266 
4 237 270 269 238 
4 271 272 269 270 
4 267 266 269 272 
4 237 242 273 270 
4 241 274 273 242 
4 275 276 273 274 
4 271 270 273 276 
4 241 246 277 274 
4 245 278 277 246 
4 279 280 277 278 
4 275 274 277 280 
4 245 250 281 278 
4 249 282 281 250 
4 283 284 281 282 
4 279 278 281 284 
4 249 254 285 282 
4 253 286 285 254 
4 287 288 285 286 
4 283 282 285 288 

CELL_TYPES 256
9
9
9
9
9
9
9
9
9
9
9
9
9
9
9
9
9
9
9
9
9
9
9
9
9
9
9
9
9
9
9
9
9
9
9
9
9
9
9
9
9
9
9
9
9
9
9
9
9
9
9
9
9
9
9
9
9
9
9
9
9
9
9
9
9
9
9
9
9
9
9
9
9
9
9
9
9
9
9
9
9
9
9
9
9
9
9
9
9
9
9
9
9
9
9
9
9
9
9
9
9
9
9
9
9
9
9
9
9
9
9
9
9
9
9
9
9
9
9
9
9
9
9
9
9
9
9
9
9
9
9
9
9
9
9
9
9
9
9
9
9
9
9
9
9
9
9
9
9
9
9
9
9
9
9
9
9
9
9
9
9
9
9
9
9
9
9
9
9
9
9
9
9
9
9
9
9
9
9
9
9
9
9
9
9
9
9
9
9
9
9
9
9
9
9
9
9
9
9
9
9
9
9
9
9
9
9
9
9
9
9
9
9
9
9
9
9
9
9
9
9
9
9
9
9
9
9
9
9
9
9
9
9
9
9
9
9
9
9
9
9
9
9
9
9
9
9
9
9
9
9
9
9
9
9
9
POINT_DATA 289
SCALARS u double 1
LOOKUP_TABLE default
0.000e+00
0.000e+00
0.000e+00
0.000e+00
0.000e+00
0.000e+00
0.000e+00
0.000e+00
0.000e+00
0.000e+00
0.000e+00
0.000e+00
0.000e+00
0.000e+00
0.000e+00
0.000e+00
0.000e+00
0.000e+00
0.000e+00
0.000e+00
0.000e+00
0.000e+00
0.000e+00
0.000e+00
0.000e+00
0.000e+00
0.000e+00
0.000e+00
0.000e+00
0.000e+00
0.000e+00
0.000e+00
0.000e+00
0.000e+00
0.000e+00
0.000e+00
0.000e+00
0.000e+00
0.000e+00
0.000e+00
0.000e+00
0.000e+00
0.000e+00
0.000e+00
0.000e+00
0.000e+00
0.000e+00
0.000e+00
0.000e+00
0.000e+00
0.000e+00
0.000e+00
0.000e+00
0.000e+00
0.000e+00
0.000e+00
0.000e+00
0.000e+00
0.000e+00
0.000e+00
0.000e+00
0.000e+00
0.000e+00
0.000e+00
0.000e+00
0.000e+00
0.000e+00
0.000e+00
0.000e+00
0.000e+00
0.000e+00
0.000e+00
0.000e+00
0.000e+00
0.000e+00
0.000e+00
0.000e+00
0.000e+00
0.000e+00
0.000e+00
0.000e+00
0.000e+00
0.000e+00
0.000e+00
0.000e+00
0.000e+00
0.000e+00
0.000e+00
0.000e+00
0.000e+00
0.000e+00
0.000e+00
0.000e+00
0.000e+00
0.000e+00
0.000e+00
0.000e+00
0.000e+00
0.000e+00
0.000e+00
0.000e+00
0.000e+00
0.000e+00
0.000e+00
0.000e+00
0.000e+00
0.000e+00
0.000e+00
0.000e+00
0.000e+00
0.000e+00
0.000e+00
0.000e+00
0.000e+00
0.000e+00
0.000e+00
0.000e+00
0.000e+00
0.000e+00
0.000e+00
0.000e+00
0.000e+00
0.000e+00
0.000e+00
0.000e+00
0.000e+00
0.000e+00
0.000e+00
0.000e+00
0.000e+00
0.000e+00
0.000e+00
0.000e+00
0.000e+00
0.000e+00
0.000e+00
0.000e+00
0.000e+00
0.000e+00
0.000e+00
0.000e+00
0.000e+00
0.000e+00
0.000e+00
0.000e+00
0.000e+00
0.000e+00
0.000e+00
0.000e+00
0.000e+00
0.000e+00
0.000e+00
0.000e+00
0.000e+00
0.000e+00
0.000e+00
0.000e+00
0.000e+00
0.000e+00
0.000e+00
0.000e+00
0.000e+00
0.000e+00
0.000e+00
0.000e+00
0.000e+00
0.000e+00
0.000e+00
0.000e+00
0.000e+00
0.000e+00
0.000e+00
0.000e+00
0.000e+00
0.000e+00
0.000e+00
0.000e+00
0.000e+00
0.000e+00
0.000e+00
0.000e+00
0.000e+00
0.000e+00
0.000e+00
0.000e+00
0.000e+00
0.000e+00
0.000e+00
0.000e+00
0.000e+00
0.000e+00
0.000e+00
0.000e+00
0.000e+00
0.000e+00
0.000e+00
0.000e+00
0.000e+00
0.000e+00
0.000e+00
0.000e+00
0.000e+00
0.000e+00
0.000e+00
0.000e+00
0.000e+00
0.000e+00
0.000e+00
0.000e+00
0.000e+00
0.000e+00
0.000e+00
0.000e+00
0.000e+00
0.000e+00
0.000e+00
0.000e+00
0.000e+00
0.000e+00
0.000e+00
0.000e+00
0.000e+00
0.000e+00
0.000e+00
0.000e+00
0.000e+00
0.000e+00
0.000e+00
0.000e+00
0.000e+00
0.000e+00
0.000e+00
0.000e+00
0.000e+00
0.000e+00
0.000e+00
0.000e+00
0.000e+00
0.000e+00
0.000e+00
0.000e+00
0.000e+00
0.000e+00
0.000e+00
0.000e+00
0.000e+00
0.000e+00
0.000e+00
0.000e+00
0.000e+00
0.000e+00
0.000e+00
0.000e+00
0.000e+00
0.000e+00
0.000e+00
0.000e+00
0.000e+00
0.000e+00
0.000e+00
0.000e+00
0.000e+00
0.000e+00
0.000e+00
0.000e+00
0.000e+00
0.000e+00
0.000e+00
0.000e+00
0.000e+00
0.000e+00
0.000e+00
0.000e+00
0.000e+00
0.000e+00
0.000e+00
0.000e+00
0.000e+00
0.000e+00
0.000e+00
0.000e+00
0.000e+00
0.000e+00
0.000e+00
0.000e+00
0.000e+00
0.000e+00
0.000e+00
0.000e+00
SCALARS v double 1
LOOKUP_TABLE default
0.000e+00
0.000e+00
0.000e+00
0.000e+00
0.000e+00
0.000e+00
0.000e+00
0.000e+00
0.000e+00
0.000e+00
0.000e+00
0.000e+00
0.000e+00
0.000e+00
0.000e+00
0.000e+00
0.000e+00
0.000e+00
0.000e+00
0.000e+00
0.000e+00
0.000e+00
0.000e+00
0.000e+00
0.000e+00
0.000e+00
0.000e+00
0.000e+00
0.000e+00
0.000e+00
0.000e+00
0.000e+00
0.000e+00
0.000e+00
0.000e+00
0.000e+00
0.000e+00
0.000e+00
0.000e+00
0.000e+00
0.000e+00
0.000e+00
0.000e+00
0.000e+00
0.000e+00
0.000e+00
0.000e+00
0.000e+00
0.000e+00
0.000e+00
0.000e+00
0.000e+00
0.000e+00
0.000e+00
0.000e+00
0.000e+00
0.000e+00
0.000e+00
0.000e+00
0.000e+00
0.000e+00
0.000e+00
0.000e+00
0.000e+00
0.000e+00
0.000e+00
0.000e+00
0.000e+00
0.000e+00
0.000e+00
0.000e+00
0.000e+00
0.000e+00
0.000e+00
0.000e+00
0.000e+00
0.000e+00
0.000e+00
0.000e+00
0.000e+00
0.000e+00
0.000e+00
0.000e+00
0.000e+00
0.000e+00
0.000e+00
0.000e+00
0.000e+00
0.000e+00
0.000e+00
0.000e+00
0.000e+00
0.000e+00
0.000e+00
0.000e+00
0.000e+00
0.000e+00
0.000e+00
0.000e+00
0.000e+00
0.000e+00
0.000e+00
0.000e+00
0.000e+00
0.000e+00
0.000e+00
0.000e+00
0.000e+00
0.000e+00
0.000e+00
0.000e+00
0.000e+00
0.000e+00
0.000e+00
0.000e+00
0.000e+00
0.000e+00
0.000e+00
0.000e+00
0.000e+00
0.000e+00
0.000e+00
0.000e+00
0.000e+00
0.000e+00
0.000e+00
0.000e+00
0.000e+00
0.000e+00
0.000e+00
0.000e+00
0.000e+00
0.000e+00
0.000e+00
0.000e+00
0.000e+00
0.000e+00
0.000e+00
0.000e+00
0.000e+00
0.000e+00
0.000e+00
0.000e+00
0.000e+00
0.000e+00
0.000e+00
0.000e+00
0.000e+00
0.000e+00
0.000e+00
0.000e+00
0.000e+00
0.000e+00
0.000e+00
0.000e+00
0.000e+00
0.000e+00
0.000e+00
0.000e+00
0.000e+00
0.000e+00
0.000e+00
0.000e+00
0.000e+00
0.000e+00
0.000e+00
0.000e+00
0.000e+00
0.000e+00
0.000e+00
0.000e+00
0.000e+00
0.000e+00
0.000e+00
0.000e+00
0.000e+00
0.000e+00
0.000e+00
0.000e+00
0.000e+00
0.000e+00
0.000e+00
0.000e+00
0.000e+00
0.000e+00
0.000e+00
0.000e+00
0.000e+00
0.000e+00
0.000e+00
0.000e+00
0.000e+00
0.000e+00
0.000e+00
0.000e+00
0.000e+00
0.000e+00
0.000e+00
0.000e+00
0.000e+00
0.000e+00
0.000e+00
0.000e+00
0.000e+00
0.000e+00
0.000e+00
0.000e+00
0.000e+00
0.000e+00
0.000e+00
0.000e+00
0.000e+00
0.000e+00
0.000e+00
0.000e+00
0.000e+00
0.000e+00
0.000e+00
0.000e+00
0.000e+00
0.000e+00
0.000e+00
0.000e+00
0.000e+00
0.000e+00
0.000e+00
0.000e+00
0.000e+00
0.000e+00
0.000e+00
0.000e+00
0.000e+00
0.000e+00
0.000e+00
0.000e+00
0.000e+00
0.000e+00
0.000e+00
0.000e+00
0.000e+00
0.000e+00
0.000e+00
0.000e+00
0.000e+00
0.000e+00
0.000e+00
0.000e+00
0.000e+00
0.000e+00
0.000e+00
0.000e+00
0.000e+00
0.000e+00
0.000e+00
0.000e+00
0.000e+00
0.000e+00
0.000e+00
0.000e+00
0.000e+00
0.000e+00
0.000e+00
0.000e+00
0.000e+00
0.000e+00
0.000e+00
0.000e+00
0.000e+00
0.000e+00
0.000e+00
0.000e+00
0.000e+00
0.000e+00
0.000e+00
0.000e+00
0.000e+00
0.000e+00
0.000e+00
0.000e+00
0.000e+00
0.000e+00
0.000e+00
0.000e+00
0.000e+00
0.000e+00
0.000e+00
0.000e+00
0.000e+00
0.000e+00
SCALARS w double 1
LOOKUP_TABLE default
0.000e+00
0.000e+00
0.000e+00
-2.800e-10
0.000e+00
-4.674e-10
-8.171e-10
-4.674e-10
0.000e+00
0.000e+00
-6.051e-10
0.000e+00
-7.076e-10
-1.280e-09
-1.081e-09
0.000e+00
-7.822e-10
0.000e+00
-8.331e-10
-1.526e-09
-1.426e-09
0.000e+00
-8.628e-10
0.000e+00
-8.726e-10
-1.603e-09
-1.584e-09
0.000e+00
-8.628e-10
0.000e+00
-8.331e-10
-1.526e-09
-1.584e-09
0.000e+00
-7.822e-10
0.000e+00
-7.076e-10
-1.280e-09
-1.426e-09
0.000e+00
-6.051e-10
0.000e+00
-4.674e-10
-8.171e-10
-1.081e-09
0.000e+00
-2.800e-10
0.000e+00
0.000e+00
0.000e+00
-4.674e-10
0.000e+00
-6.051e-10
-1.081e-09
-1.280e-09
-7.076e-10
0.000e+00
-1.452e-09
-1.735e-09
-2.088e-09
-1.735e-09
-1.945e-09
-2.089e-09
-2.533e-09
-2.351e-09
-2.173e-09
-2.201e-09
-2.675e-09
-2.640e-09
-2.173e-09
-2.089e-09
-2.533e-09
-2.640e-09
-1.945e-09
-1.735e-09
-2.088e-09
-2.351e-09
-1.452e-09
-1.081e-09
-1.280e-09
-1.735e-09
-6.051e-10
0.000e+00
0.000e+00
-7.076e-10
0.000e+00
-7.822e-10
-1.426e-09
-1.526e-09
-8.331e-10
0.000e+00
-1.945e-09
-2.351e-09
-2.533e-09
-2.089e-09
-2.656e-09
-2.867e-09
-3.100e-09
-2.867e-09
-2.992e-09
-3.033e-09
-3.283e-09
-3.238e-09
-2.992e-09
-2.867e-09
-3.100e-09
-3.238e-09
-2.656e-09
-2.351e-09
-2.533e-09
-2.867e-09
-1.945e-09
-1.426e-09
-1.526e-09
-2.089e-09
-7.822e-10
0.000e+00
0.000e+00
-8.331e-10
0.000e+00
-8.628e-10
-1.584e-09
-1.603e-09
-8.726e-10
0.000e+00
-2.173e-09
-2.640e-09
-2.675e-09
-2.201e-09
-2.992e-09
-3.238e-09
-3.283e-09
-3.033e-09
-3.383e-09
-3.431e-09
-3.480e-09
-3.431e-09
-3.383e-09
-3.238e-09
-3.283e-09
-3.431e-09
-2.992e-09
-2.640e-09
-2.675e-09
-3.033e-09
-2.173e-09
-1.584e-09
-1.603e-09
-2.201e-09
-8.628e-10
0.000e+00
0.000e+00
-8.726e-10
0.000e+00
-8.628e-10
-1.584e-09
-1.526e-09
-8.331e-10
0.000e+00
-2.173e-09
-2.640e-09
-2.533e-09
-2.089e-09
-2.992e-09
-3.238e-09
-3.100e-09
-2.867e-09
-3.383e-09
-3.431e-09
-3.283e-09
-3.238e-09
-3.383e-09
-3.238e-09
-3.100e-09
-3.238e-09
-2.992e-09
-2.640e-09
-2.533e-09
-2.867e-09
-2.173e-09
-1.584e-09
-1.526e-09
-2.089e-09
-8.628e-10
0.000e+00
0.000e+00
-8.331e-10
0.000e+00
-7.822e-10
-1.426e-09
-1.280e-09
-7.076e-10
0.000e+00
-1.945e-09
-2.351e-09
-2.088e-09
-1.735e-09
-2.656e-09
-2.867e-09
-2.533e-09
-2.351e-09
-2.992e-09
-3.033e-09
-2.675e-09
-2.640e-09
-2.992e-09
-2.867e-09
-2.533e-09
-2.640e-09
-2.656e-09
-2.351e-09
-2.088e-09
-2.351e-09
-1.945e-09
-1.426e-09
-1.280e-09
-1.735e-09
-7.822e-10
0.000e+00
0.000e+00
-7.076e-10
0.000e+00
-6.051e-10
-1.081e-09
-8.171e-10
-4.674e-10
0.000e+00
-1.452e-09
-1.735e-09
-1.280e-09
-1.081e-09
-1.945e-09
-2.089e-09
-1.526e-09
-1.426e-09
-2.173e-09
-2.201e-09
-1.603e-09
-1.584e-09
-2.173e-09
-2.089e-09
-1.526e-09
-1.584e-09
-1.945e-09
-1.735e-09
-1.280e-09
-1.426e-09
-1.452e-09
-1.081e-09
-8.171e-10
-1.081e-09
-6.051e-10
0.000e+00
0.000e+00
-4.674e-10
0.000e+00
-2.800e-10
-4.674e-10
0.000e+00
0.000e+00
0.000e+00
-6.051e-10
-7.076e-10
0.000e+00
0.000e+00
-7.822e-10
-8.331e-10
0.000e+00
0.000e+00
-8.628e-10
-8.726e-10
0.000e+00
0.000e+00
-8.628e-10
-8.331e-10
0.000e+00
0.000e+00
-7.822e-10
-7.076e-10
0.000e+00
0.000e+00
-6.051e-10
-4.674e-10
0.000e+00
0.000e+00
-2.800e-10
0.000e+00
0.000e+00
0.000e+00
SCALARS rotx double 1
LOOKUP_TABLE default
0.000e+00
0.000e+00
0.000e+00
-1.314e-08
0.000e+00
-1.775e-08
-2.849e-08
-1.902e-08
0.000e+00
0.000e+00
-1.843e-08
0.000e+00
-1.681e-08
-2.896e-08
-3.098e-08
0.000e+00
-1.370e-08
0.000e+00
-9.625e-09
-1.695e-08
-2.394e-08
0.000e+00
-4.953e-09
0.000e+00
2.170e-25
9.609e-24
-8.760e-09
0.000e+00
4.953e-09
0.000e+00
9.625e-09
1.695e-08
8.760e-09
0.000e+00
1.370e-08
0.000e+00
1.681e-08
2.896e-08
2.394e-08
0.000e+00
1.843e-08
0.000e+00
1.775e-08
2.849e-08
3.098e-08
0.000e+00
1.314e-08
0.000e+00
0.000e+00
0.000e+00
1.902e-08
0.000e+00
-2.308e-08
-3.547e-08
-4.045e-08
-2.603e-08
0.000e+00
-3.959e-08
-3.764e-08
-4.386e-08
-4.567e-08
-3.146e-08
-2.243e-08
-2.645e-08
-3.693e-08
-1.163e-08
1.916e-23
3.908e-25
-1.376e-08
1.163e-08
2.243e-08
2.645e-08
1.376e-08
3.146e-08
3.764e-08
4.386e-08
3.693e-08
3.959e-08
3.547e-08
4.045e-08
4.567e-08
2.308e-08
0.000e+00
0.000e+00
2.603e-08
0.000e+00
-2.819e-08
-4.404e-08
-4.649e-08
-2.968e-08
0.000e+00
-4.999e-08
-4.827e-08
-5.124e-08
-5.293e-08
-4.082e-08
-2.933e-08
-3.127e-08
-4.344e-08
-1.529e-08
1.316e-23
1.339e-23
-1.631e-08
1.529e-08
2.933e-08
3.127e-08
1.631e-08
4.082e-08
4.827e-08
5.124e-08
4.344e-08
4.999e-08
4.404e-08
4.649e-08
5.293e-08
2.819e-08
0.000e+00
0.000e+00
2.968e-08
0.000e+00
-3.056e-08
-4.793e-08
-4.840e-08
-3.085e-08
0.000e+00
-5.464e-08
-5.297e-08
-5.354e-08
-5.520e-08
-4.495e-08
-3.239e-08
-3.276e-08
-4.545e-08
-1.691e-08
6.105e-23
7.585e-23
-1.710e-08
1.691e-08
3.239e-08
3.276e-08
1.710e-08
4.495e-08
5.297e-08
5.354e-08
4.545e-08
5.464e-08
4.793e-08
4.840e-08
5.520e-08
3.056e-08
0.000e+00
0.000e+00
3.085e-08
0.000e+00
-3.056e-08
-4.793e-08
-4.649e-08
-2.968e-08
0.000e+00
-5.464e-08
-5.297e-08
-5.124e-08
-5.293e-08
-4.495e-08
-3.239e-08
-3.127e-08
-4.344e-08
-1.691e-08
3.920e-23
5.531e-23
-1.631e-08
1.691e-08
3.239e-08
3.127e-08
1.631e-08
4.495e-08
5.297e-08
5.124e-08
4.344e-08
5.464e-08
4.793e-08
4.649e-08
5.293e-08
3.056e-08
0.000e+00
0.000e+00
2.968e-08
0.000e+00
-2.819e-08
-4.404e-08
-4.045e-08
-2.603e-08
0.000e+00
-4.999e-08
-4.827e-08
-4.386e-08
-4.567e-08
-4.082e-08
-2.933e-08
-2.645e-08
-3.693e-08
-1.529e-08
5.106e-23
2.664e-23
-1.376e-08
1.529e-08
2.933e-08
2.645e-08
1.376e-08
4.082e-08
4.827e-08
4.386e-08
3.693e-08
4.999e-08
4.404e-08
4.045e-08
4.567e-08
2.819e-08
0.000e+00
0.000e+00
2.603e-08
0.000e+00
-2.308e-08
-3.547e-08
-2.849e-08
-1.902e-08
0.000e+00
-3.959e-08
-3.764e-08
-2.896e-08
-3.098e-08
-3.146e-08
-2.243e-08
-1.695e-08
-2.394e-08
-1.163e-08
1.325e-23
-4.399e-24
-8.760e-09
1.163e-08
2.243e-08
1.695e-08
8.760e-09
3.146e-08
3.764e-08
2.896e-08
2.394e-08
3.959e-08
3.547e-08
2.849e-08
3.098e-08
2.308e-08
0.000e+00
0.000e+00
1.902e-08
0.000e+00
-1.314e-08
-1.775e-08
0.000e+00
0.000e+00
0.000e+00
-1.843e-08
-1.681e-08
0.000e+00
0.000e+00
-1.370e-08
-9.625e-09
0.000e+00
0.000e+00
-4.953e-09
-1.682e-23
0.000e+00
0.000e+00
4.953e-09
9.625e-09
0.000e+00
0.000e+00
1.370e-08
1.681e-08
0.000e+00
0.000e+00
1.843e-08
1.775e-08
0.000e+00
0.000e+00
1.314e-08
0.000e+00
0.000e+00
0.000e+00
SCALARS roty double 1
LOOKUP_TABLE default
0.000e+00
0.000e+00
0.000e+00
1.314e-08
0.000e+00
1.902e-08
2.849e-08
1.775e-08
0.000e+00
0.000e+00
2.308e-08
0.000e+00
2.603e-08
4.045e-08
3.547e-08
0.000e+00
2.819e-08
0.000e+00
2.968e-08
4.649e-08
4.404e-08
0.000e+00
3.056e-08
0.000e+00
3.085e-08
4.840e-08
4.793e-08
0.000e+00
3.056e-08
0.000e+00
2.968e-08
4.649e-08
4.793e-08
0.000e+00
2.819e-08
0.000e+00
2.603e-08
4.045e-08
4.404e-08
0.000e+00
2.308e-08
0.000e+00
1.902e-08
2.849e-08
3.547e-08
0.000e+00
1.314e-08
0.000e+00
0.000e+00
0.000e+00
1.775e-08
0.000e+00
1.843e-08
3.098e-08
2.896e-08
1.681e-08
0.000e+00
3.959e-08
4.567e-08
4.386e-08
3.764e-08
4.999e-08
5.293e-08
5.124e-08
4.827e-08
5.464e-08
5.520e-08
5.354e-08
5.297e-08
5.464e-08
5.293e-08
5.124e-08
5.297e-08
4.999e-08
4.567e-08
4.386e-08
4.827e-08
3.959e-08
3.098e-08
2.896e-08
3.764e-08
1.843e-08
0.000e+00
0.000e+00
1.681e-08
0.000e+00
1.370e-08
2.394e-08
1.695e-08
9.625e-09
0.000e+00
3.146e-08
3.693e-08
2.645e-08
2.243e-08
4.082e-08
4.344e-08
3.127e-08
2.933e-08
4.495e-08
4.545e-08
3.276e-08
3.239e-08
4.495e-08
4.344e-08
3.127e-08
3.239e-08
4.082e-08
3.693e-08
2.645e-08
2.933e-08
3.146e-08
2.394e-08
1.695e-08
2.243e-08
1.370e-08
0.000e+00
0.000e+00
9.625e-09
0.000e+00
4.953e-09
8.760e-09
-9.551e-24
2.330e-25
0.000e+00
1.163e-08
1.376e-08
-3.127e-23
-2.524e-23
1.529e-08
1.631e-08
-4.249e-23
-3.443e-23
1.691e-08
1.710e-08
-9.610e-23
-6.769e-23
1.691e-08
1.631e-08
-9.717e-23
-1.298e-22
1.529e-08
1.376e-08
-8.988e-23
-9.296e-23
1.163e-08
8.760e-09