# vtk DataFile Version 3.0
vtk output
ASCII
DATASET UNSTRUCTURED_GRID
POINTS 6475 double
4.003015e+00 1.945727e-01 -6.024641e+00
4.059129e+00 1.981021e-01 -6.132224e+00
4.003015e+00 2.366775e-01 -6.024641e+00
4.059129e+00 2.397340e-01 -6.132224e+00
4.115242e+00 2.016347e-01 -6.239807e+00
4.115242e+00 2.427922e-01 -6.239807e+00
4.115242e+00 2.839496e-01 -6.239807e+00
4.059129e+00 2.813659e-01 -6.132224e+00
4.003015e+00 2.787822e-01 -6.024641e+00
4.171356e+00 2.051706e-01 -6.347390e+00
4.171356e+00 2.458558e-01 -6.347390e+00
4.227469e+00 2.087100e-01 -6.454973e+00
4.227469e+00 2.489212e-01 -6.454973e+00
4.227469e+00 2.891324e-01 -6.454973e+00
4.171356e+00 2.865410e-01 -6.347390e+00
4.283583e+00 2.122530e-01 -6.562556e+00
4.283583e+00 2.519925e-01 -6.562556e+00
4.339696e+00 2.157997e-01 -6.670138e+00
4.339696e+00 2.550656e-01 -6.670138e+00
4.339696e+00 2.943315e-01 -6.670138e+00
4.283582e+00 2.917320e-01 -6.562556e+00
4.395809e+00 2.193502e-01 -6.777721e+00
4.395809e+00 2.581451e-01 -6.777721e+00
4.451922e+00 2.229048e-01 -6.885303e+00
4.451922e+00 2.612266e-01 -6.885303e+00
4.451922e+00 2.995483e-01 -6.885303e+00
4.395809e+00 2.969399e-01 -6.777721e+00
4.003015e+00 3.208869e-01 -6.024641e+00
4.059129e+00 3.229970e-01 -6.132224e+00
4.115242e+00 3.251071e-01 -6.239807e+00
4.115242e+00 3.662646e-01 -6.239807e+00
4.059129e+00 3.646281e-01 -6.132224e+00
4.003015e+00 3.629916e-01 -6.024641e+00
4.171356e+00 3.272253e-01 -6.347390e+00
4.227469e+00 3.293436e-01 -6.454973e+00
4.227469e+00 3.695547e-01 -6.454973e+00
4.171356e+00 3.679096e-01 -6.347390e+00
4.283582e+00 3.314705e-01 -6.562555e+00
4.339696e+00 3.335975e-01 -6.670138e+00
4.339696e+00 3.728634e-01 -6.670138e+00
4.283582e+00 3.712091e-01 -6.562555e+00
4.395809e+00 3.357338e-01 -6.777721e+00
4.451922e+00 3.378701e-01 -6.885303e+00
4.451922e+00 3.761919e-01 -6.885303e+00
4.395809e+00 3.745276e-01 -6.777721e+00
4.003015e+00 4.050963e-01 -6.024641e+00
4.059128e+00 4.062580e-01 -6.132224e+00
4.115242e+00 4.074220e-01 -6.239807e+00
4.115242e+00 4.485795e-01 -6.239807e+00
4.059128e+00 4.478880e-01 -6.132224e+00
4.003015e+00 4.472010e-01 -6.024641e+00
4.171355e+00 4.085927e-01 -6.347390e+00
4.227469e+00 4.097659e-01 -6.454973e+00
4.227469e+00 4.499771e-01 -6.454972e+00
4.171355e+00 4.492758e-01 -6.347390e+00
4.283582e+00 4.109463e-01 -6.562555e+00
4.339696e+00 4.121293e-01 -6.670138e+00
4.339695e+00 4.513952e-01 -6.670138e+00
4.283582e+00 4.506835e-01 -6.562555e+00
4.395809e+00 4.133200e-01 -6.777721e+00
4.451922e+00 4.145136e-01 -6.885303e+00
4.451922e+00 4.528354e-01 -6.885303e+00
4.395809e+00 4.521125e-01 -6.777721e+00
3.511031e+00 2.219258e-01 -6.024641e+00
3.573728e+00 2.258887e-01 -6.132224e+00
3.593028e+00 2.173669e-01 -6.024641e+00
3.654628e+00 2.212576e-01 -6.132224e+00
3.636425e+00 2.298517e-01 -6.239807e+00
3.716228e+00 2.251489e-01 -6.239807e+00
3.796031e+00 2.204460e-01 -6.239807e+00
3.735528e+00 2.166265e-01 -6.132224e+00
3.675025e+00 2.128081e-01 -6.024641e+00
3.699121e+00 2.338147e-01 -6.347389e+00
3.777827e+00 2.290407e-01 -6.347390e+00
3.761818e+00 2.377776e-01 -6.454972e+00
3.839427e+00 2.329330e-01 -6.454972e+00
3.917035e+00 2.280884e-01 -6.454972e+00
3.856533e+00 2.242666e-01 -6.347390e+00
3.824516e+00 2.417406e-01 -6.562555e+00
3.901027e+00 2.368260e-01 -6.562555e+00
3.887213e+00 2.457035e-01 -6.670138e+00
3.962626e+00 2.407196e-01 -6.670138e+00
4.038040e+00 2.357356e-01 -6.670138e+00
3.977538e+00 2.319114e-01 -6.562555e+00
3.949909e+00 2.496665e-01 -6.777721e+00
4.024226e+00 2.446138e-01 -6.777721e+00
4.012607e+00 2.536295e-01 -6.885303e+00
4.085826e+00 2.485087e-01 -6.885303e+00
4.159045e+00 2.433879e-01 -6.885303e+00
4.098543e+00 2.395611e-01 -6.777721e+00
3.757023e+00 2.082493e-01 -6.024641e+00
3.816428e+00 2.119954e-01 -6.132224e+00
3.875833e+00 2.157432e-01 -6.239807e+00
3.955636e+00 2.110404e-01 -6.239807e+00
3.897328e+00 2.073643e-01 -6.132224e+00
3.839020e+00 2.036904e-01 -6.024641e+00
3.935239e+00 2.194926e-01 -6.347390e+00
3.994644e+00 2.232438e-01 -6.454973e+00
4.072252e+00 2.183992e-01 -6.454973e+00
4.013944e+00 2.147186e-01 -6.347390e+00
4.054049e+00 2.269968e-01 -6.562555e+00
4.113454e+00 2.307516e-01 -6.670138e+00
4.188868e+00 2.257676e-01 -6.670138e+00
4.130560e+00 2.220822e-01 -6.562556e+00
4.172859e+00 2.345084e-01 -6.777721e+00
4.232265e+00 2.382671e-01 -6.885303e+00
4.305484e+00 2.331464e-01 -6.885303e+00
4.247176e+00 2.294557e-01 -6.777721e+00
3.921018e+00 1.991316e-01 -6.024641e+00
3.978228e+00 2.027332e-01 -6.132224e+00
4.035439e+00 2.063375e-01 -6.239807e+00
4.092650e+00 2.099446e-01 -6.347390e+00
4.149861e+00 2.135546e-01 -6.454973e+00
4.207071e+00 2.171676e-01 -6.562556e+00
4.264282e+00 2.207837e-01 -6.670138e+00
4.321493e+00 2.244030e-01 -6.777721e+00
4.378703e+00 2.280256e-01 -6.885303e+00
4.090463e+00 1.897109e-01 -6.024641e+00
4.145576e+00 1.931534e-01 -6.132224e+00
4.200690e+00 1.965992e-01 -6.239807e+00
4.286138e+00 1.915637e-01 -6.239807e+00
4.232024e+00 1.882047e-01 -6.132224e+00
4.177911e+00 1.848490e-01 -6.024641e+00
4.255804e+00 2.000483e-01 -6.347390e+00
4.310917e+00 2.035009e-01 -6.454973e+00
4.394365e+00 1.982917e-01 -6.454973e+00
4.340251e+00 1.949260e-01 -6.347390e+00
4.366031e+00 2.069570e-01 -6.562556e+00
4.421144e+00 2.104169e-01 -6.670138e+00
4.502593e+00 2.050341e-01 -6.670138e+00
4.448479e+00 2.016611e-01 -6.562556e+00
4.476257e+00 2.138806e-01 -6.777721e+00
4.531371e+00 2.173484e-01 -6.885303e+00
4.610819e+00 2.117919e-01 -6.885303e+00
4.556706e+00 2.084110e-01 -6.777721e+00
4.265358e+00 1.799871e-01 -6.024641e+00
4.318472e+00 1.832560e-01 -6.132224e+00
4.371586e+00 1.865282e-01 -6.239807e+00
4.457034e+00 1.814926e-01 -6.239807e+00
4.404920e+00 1.783074e-01 -6.132224e+00
4.352807e+00 1.751253e-01 -6.024641e+00
4.424700e+00 1.898036e-01 -6.347390e+00
4.477814e+00 1.930826e-01 -6.454973e+00
4.561262e+00 1.878734e-01 -6.454973e+00
4.509148e+00 1.846813e-01 -6.347390e+00
4.530927e+00 1.963651e-01 -6.562556e+00
4.584041e+00 1.996513e-01 -6.670138e+00
4.665489e+00 1.942685e-01 -6.670138e+00
4.613375e+00 1.910691e-01 -6.562556e+00
4.637154e+00 2.029414e-01 -6.777721e+00
4.690268e+00 2.062355e-01 -6.885303e+00
4.769716e+00 2.006791e-01 -6.885303e+00
4.717602e+00 1.974718e-01 -6.777721e+00
4.440254e+00 1.702634e-01 -6.024641e+00
4.491368e+00 1.733586e-01 -6.132224e+00
4.542482e+00 1.764571e-01 -6.239807e+00
4.627930e+00 1.714216e-01 -6.239807e+00
4.577816e+00 1.684100e-01 -6.132224e+00
4.527702e+00 1.654015e-01 -6.024641e+00
4.593596e+00 1.795590e-01 -6.347390e+00
4.644710e+00 1.826643e-01 -6.454973e+00
4.728158e+00 1.774551e-01 -6.454973e+00
4.678044e+00 1.744366e-01 -6.347390e+00
4.695824e+00 1.857731e-01 -6.562556e+00
4.746937e+00 1.888857e-01 -6.670138e+00
4.828385e+00 1.835030e-01 -6.670138e+00
4.778272e+00 1.804772e-01 -6.562556e+00
4.798051e+00 1.920022e-01 -6.777721e+00
4.849164e+00 1.951227e-01 -6.885303e+00
4.928613e+00 1.895663e-01 -6.885303e+00
4.878499e+00 1.865326e-01 -6.777721e+00
3.554108e+00 1.664421e-01 -5.163978e+00
3.610221e+00 1.699491e-01 -5.271561e+00
3.554108e+00 2.123441e-01 -5.163978e+00
3.610221e+00 2.153765e-01 -5.271561e+00
3.666335e+00 1.734587e-01 -5.379144e+00
3.666335e+00 2.184102e-01 -5.379144e+00
3.666335e+00 2.633618e-01 -5.379144e+00
3.610221e+00 2.608039e-01 -5.271561e+00
3.554108e+00 2.582461e-01 -5.163978e+00
3.722448e+00 1.769708e-01 -5.486727e+00
3.722448e+00 2.214481e-01 -5.486727e+00
3.778562e+00 1.804855e-01 -5.594310e+00
3.778562e+00 2.244873e-01 -5.594310e+00
3.778562e+00 2.684892e-01 -5.594310e+00
3.722448e+00 2.659255e-01 -5.486727e+00
3.834675e+00 1.840030e-01 -5.701893e+00
3.834675e+00 2.275310e-01 -5.701892e+00
3.890788e+00 1.875233e-01 -5.809475e+00
3.890788e+00 2.305762e-01 -5.809475e+00
3.890788e+00 2.736290e-01 -5.809475e+00
3.834675e+00 2.710591e-01 -5.701892e+00
3.946902e+00 1.910465e-01 -5.917058e+00
3.946902e+00 2.336261e-01 -5.917058e+00
3.946902e+00 2.762056e-01 -5.917058e+00
3.554108e+00 3.041481e-01 -5.163978e+00
3.610221e+00 3.062307e-01 -5.271561e+00
3.666335e+00 3.083133e-01 -5.379144e+00
3.666335e+00 3.532649e-01 -5.379144e+00
3.610221e+00 3.516575e-01 -5.271561e+00
3.554108e+00 3.500502e-01 -5.163978e+00
3.722448e+00 3.104022e-01 -5.486727e+00
3.778562e+00 3.124910e-01 -5.594310e+00
3.778561e+00 3.564928e-01 -5.594309e+00
3.722448e+00 3.548788e-01 -5.486727e+00
3.834675e+00 3.145864e-01 -5.701892e+00
3.890788e+00 3.166818e-01 -5.809475e+00
3.890788e+00 3.597347e-01 -5.809475e+00
3.834675e+00 3.581137e-01 -5.701892e+00
3.946902e+00 3.187844e-01 -5.917058e+00
3.946902e+00 3.613631e-01 -5.917058e+00
3.554108e+00 3.959522e-01 -5.163978e+00
3.610221e+00 3.970834e-01 -5.271561e+00
3.666335e+00 3.982164e-01 -5.379144e+00
3.666334e+00 4.431680e-01 -5.379144e+00
3.610221e+00 4.425093e-01 -5.271561e+00
3.554108e+00 4.418542e-01 -5.163978e+00
3.722448e+00 3.993545e-01 -5.486727e+00
3.778561e+00 4.004946e-01 -5.594309e+00
3.778561e+00 4.444964e-01 -5.594309e+00
3.722448e+00 4.438303e-01 -5.486727e+00
3.834675e+00 4.016400e-01 -5.701892e+00
3.890788e+00 4.027875e-01 -5.809475e+00
3.890788e+00 4.458404e-01 -5.809475e+00
3.834675e+00 4.451663e-01 -5.701892e+00
3.946902e+00 4.039408e-01 -5.917058e+00
3.946902e+00 4.465185e-01 -5.917058e+00
3.513364e+00 2.639008e-01 -6.024641e+00
3.594973e+00 2.593635e-01 -6.024641e+00
3.676581e+00 2.548263e-01 -6.024641e+00
3.678137e+00 2.968445e-01 -6.024641e+00
3.596917e+00 3.013601e-01 -6.024641e+00
3.515698e+00 3.058757e-01 -6.024641e+00
3.758190e+00 2.502891e-01 -6.024641e+00
3.839798e+00 2.457519e-01 -6.024641e+00
3.840576e+00 2.878133e-01 -6.024641e+00
3.759356e+00 2.923289e-01 -6.024641e+00
3.921407e+00 2.412147e-01 -6.024641e+00
3.921796e+00 2.832977e-01 -6.024641e+00
3.518032e+00 3.478507e-01 -6.024641e+00
3.598862e+00 3.433567e-01 -6.024641e+00
3.679693e+00 3.388627e-01 -6.024641e+00
3.681249e+00 3.808810e-01 -6.024641e+00
3.600807e+00 3.853533e-01 -6.024641e+00
3.520365e+00 3.898256e-01 -6.024641e+00
3.760523e+00 3.343688e-01 -6.024641e+00
3.841354e+00 3.298748e-01 -6.024641e+00
[...]
POINT_DATA 6475
SCALARS u double 1
LOOKUP_TABLE default
7.932e-05
8.545e-05
5.354e-05
6.034e-05
9.175e-05
6.674e-05
4.057e-05
3.420e-05
2.779e-05
9.805e-05
7.216e-05
1.044e-04
7.783e-05
5.096e-05
4.565e-05
1.108e-04
8.359e-05
1.172e-04
8.950e-05
6.217e-05
5.643e-05
1.237e-04
9.616e-05
1.302e-04
1.032e-04
7.610e-05
6.897e-05
2.058e-06
7.688e-06
1.358e-05
-1.371e-05
-1.893e-05
-2.369e-05
1.866e-05
2.384e-05
-3.371e-06
-8.571e-06
2.928e-05
3.505e-05
8.070e-06
2.180e-06
4.186e-05
4.904e-05
2.196e-05
1.478e-05
-4.952e-05
-4.550e-05
-4.085e-05
-6.763e-05
-7.181e-05
-7.546e-05
-3.580e-05
-3.053e-05
-5.758e-05
-6.286e-05
-2.484e-05
-1.881e-05
-4.569e-05
-5.184e-05
-1.225e-05
-5.170e-06
-3.236e-05
-3.919e-05
6.901e-05
7.450e-05
7.055e-05
7.608e-05
7.992e-05
8.191e-05
8.404e-05
7.783e-05
7.205e-05
8.520e-05
8.760e-05
9.049e-05
9.316e-05
9.581e-05
9.006e-05
9.577e-05
9.863e-05
1.011e-04
1.041e-04
1.069e-04
1.014e-04
1.064e-04
1.093e-04
1.117e-04
1.146e-04
1.175e-04
1.121e-04
7.365e-05
7.970e-05
8.614e-05
8.807e-05
8.160e-05
7.542e-05
9.230e-05
9.816e-05
1.002e-04
9.420e-05
1.039e-04
1.095e-04
1.118e-04
1.061e-04
1.148e-04
1.205e-04
1.236e-04
1.176e-04
7.737e-05
8.353e-05
8.985e-05
9.599e-05
1.021e-04
1.082e-04
1.143e-04
1.205e-04
1.269e-04
8.075e-05
8.697e-05
9.361e-05
9.580e-05
8.865e-05
8.211e-05
1.003e-04
1.070e-04
1.099e-04
1.029e-04
1.137e-04
1.204e-04
1.237e-04
1.168e-04
1.270e-04
1.335e-04
1.368e-04
1.303e-04
8.366e-05
9.061e-05
9.816e-05
1.004e-04
9.270e-05
8.543e-05
1.056e-04
1.127e-04
1.152e-04
1.079e-04
1.198e-04
1.267e-04
1.295e-04
1.224e-04
1.334e-04
1.400e-04
1.434e-04
1.364e-04
8.745e-05
9.490e-05
1.026e-04
1.049e-04
9.710e-05
8.950e-05
1.101e-04
1.175e-04
1.202e-04
1.126e-04
1.249e-04
1.322e-04
1.354e-04
1.278e-04
1.395e-04
1.469e-04
1.503e-04
1.429e-04
3.415e-05
3.910e-05
1.493e-05
1.894e-05
4.469e-05
2.268e-05
7.407e-07
-1.719e-06
-4.384e-06
5.030e-05
2.608e-05
5.598e-05
3.023e-05
5.925e-06
2.849e-06
6.173e-05
3.503e-05
6.758e-05
4.055e-05
1.495e-05
9.900e-06
7.349e-05
4.720e-05
2.159e-05
-2.367e-05
-2.233e-05
-2.112e-05
-4.264e-05
-4.282e-05
-4.298e-05
-1.966e-05
-1.739e-05
-3.997e-05
-4.159e-05
-1.413e-05
-9.727e-06
-3.379e-05
-3.737e-05
-3.742e-06
-2.889e-05
-6.234e-05
-6.312e-05
-6.356e-05
-8.393e-05
-8.290e-05
-8.164e-05
-6.305e-05
-6.200e-05
-8.384e-05
-8.424e-05
-6.011e-05
-5.743e-05
-8.099e-05
-8.275e-05
-5.385e-05
-7.857e-05
4.065e-05
4.309e-05
4.503e-05
1.796e-05
1.546e-05
1.264e-05
4.708e-05
4.920e-05
2.289e-05
2.042e-05
5.131e-05
2.531e-05
-1.510e-05
-1.213e-05
-9.188e-06
-3.633e-05
-3.969e-05
-4.280e-05
-6.290e-06
-3.445e-06
-2.980e-05
-3.301e-05
-6.638e-07
-2.667e-05
-7.069e-05
-6.723e-05
-6.336e-05
-9.038e-05
-9.459e-05
-9.887e-05
-5.968e-05
-5.618e-05
-8.255e-05
-8.634e-05
-5.274e-05
-7.900e-05
-5.217e-05
-5.555e-05
-2.848e-05
-3.157e-05
-5.896e-05
-3.489e-05
-1.074e-05
-7.712e-06
-4.831e-06
-6.269e-05
-3.829e-05
-6.675e-05
-4.193e-05
-1.708e-05
-1.385e-05
-7.108e-05
-4.581e-05
-2.043e-05
1.875e-05
1.609e-05
1.338e-05
3.748e-05
3.987e-05
4.232e-05
1.062e-05
7.813e-06
3.269e-05
3.506e-05
4.956e-06
3.032e-05
6.591e-05
6.365e-05
6.153e-05
5.943e-05
5.745e-05
5.563e-05
-3.612e-05
-4.290e-05
-3.992e-05
-4.666e-05
-5.320e-05
-4.942e-05
-4.391e-05
-5.064e-05
-4.807e-05
-5.483e-05
-6.146e-05
-5.721e-05
-5.235e-05
-5.924e-05
-5.671e-05
-6.383e-05
-7.056e-05
-6.595e-05
-5.558e-05
-5.938e-05
-6.511e-05
-6.131e-05
-6.342e-05
-6.769e-05
-7.338e-05
-6.913e-05
-7.217e-05
-7.678e-05
-8.252e-05
-7.787e-05
-6.656e-05
-7.030e-05
-7.496e-05
-7.126e-05
-7.429e-05
-7.853e-05
-8.310e-05
-7.891e-05
-8.302e-05
-8.769e-05
-9.225e-05
-8.755e-05
-7.541e-05
-7.908e-05
-8.295e-05
-8.706e-05
-9.140e-05
-9.598e-05
-6.271e-06
-1.046e-05
-1.341e-05
-1.737e-05
-1.462e-05
-2.139e-05
-2.786e-05
-2.397e-05
-2.021e-05
-1.890e-05
-2.559e-05
-2.332e-05
-2.998e-05
-3.638e-05
-3.200e-05
-2.785e-05
-3.456e-05
-4.102e-05
-2.666e-05
-3.030e-05
-3.408e-05
-3.997e-05
-3.628e-05
-3.274e-05
-3.816e-05
-4.252e-05
-4.828e-05
-4.397e-05
-4.715e-05
-5.288e-05
-3.837e-05
-4.185e-05
-4.544e-05
-5.045e-05
-4.692e-05
-4.351e-05
-4.937e-05
-5.362e-05
-5.849e-05
-5.432e-05
-5.818e-05
-6.298e-05
-4.807e-05
-5.147e-05
-5.498e-05
-5.878e-05
-6.289e-05
-6.730e-05
-2.528e-05
2.022e-06
2.950e-05
3.749e-05
9.645e-06
-1.793e-05
5.696e-05
8.420e-05
9.249e-05
6.526e-05
1.110e-04
1.368e-04
1.434e-04
1.187e-04
-1.036e-05
1.726e-05
4.506e-05
5.244e-05
2.484e-05
-2.612e-06
7.267e-05
9.965e-05
1.066e-04
7.982e-05
1.256e-04
1.500e-04
1.567e-04
1.324e-04
5.286e-06
3.245e-05
5.970e-05
6.687e-05
4.008e-05
1.331e-05
8.677e-05
1.133e-04
1.197e-04
9.348e-05
1.390e-04
1.634e-04
1.702e-04
1.454e-04
2.143e-05
4.762e-05
7.377e-05
8.110e-05
5.540e-05
2.960e-05
9.989e-05
1.259e-04
1.325e-04
1.068e-04
1.516e-04
1.770e-04
1.840e-04
1.582e-04
8.324e-05
8.673e-05
8.995e-05
6.233e-05
5.881e-05
5.512e-05
9.319e-05
9.648e-05
6.923e-05
6.579e-05
9.980e-05
7.266e-05
2.722e-05
3.095e-05
3.467e-05
7.036e-06
3.140e-06
-6.395e-07
3.834e-05
4.194e-05
1.464e-05
1.089e-05
4.550e-05
1.833e-05
-2.859e-05
-2.465e-05
-2.053e-05
-1.653e-05
-1.266e-05
-8.870e-06
1.986e-05
1.586e-05
1.177e-05
3.813e-05
4.207e-05
4.595e-05
7.638e-06
3.412e-06
3.010e-05
3.415e-05
-9.129e-07
2.601e-05
7.201e-05
6.826e-05
6.448e-05
9.082e-05
9.443e-05
9.806e-05
6.066e-05
5.681e-05
8.350e-05
8.716e-05
5.293e-05
7.983e-05
1.241e-04
1.206e-04
1.171e-04
1.136e-04
1.101e-04
1.067e-04
-3.624e-05
-8.591e-06
-1.641e-05
-4.357e-05
1.922e-05
4.743e-05
3.993e-05
1.133e-05
7.636e-05
6.969e-05
-4.987e-05
-2.280e-05
-2.852e-05
-5.565e-05
4.884e-06
3.359e-05
2.815e-05
-6.990e-07
6.374e-05
5.838e-05
-6.062e-05
-3.329e-05
-3.736e-05
-6.502e-05
-5.353e-06
2.348e-05
1.997e-05
-9.016e-06
5.353e-05
4.954e-05
-6.851e-05
-4.036e-05
-1.188e-05
1.685e-05
4.577e-05
3.302e-05
3.689e-05
3.335e-05
3.703e-05
4.127e-05
4.152e-05
4.180e-05
3.720e-05
3.350e-05
4.568e-05
4.611e-05
5.026e-05
5.084e-05
5.144e-05
4.657e-05
5.494e-05
5.567e-05
5.975e-05
6.058e-05
6.145e-05
5.640e-05
6.448e-05
6.550e-05
6.665e-05
3.363e-05
3.751e-05
4.225e-05
4.290e-05
3.794e-05
3.380e-05
4.718e-05
5.219e-05
5.315e-05
4.799e-05
5.729e-05
6.253e-05
6.390e-05
5.844e-05
6.800e-05
6.959e-05
3.405e-05
3.854e-05
4.378e-05
4.907e-05
5.445e-05
5.996e-05
6.563e-05
7.149e-05
1.177e-04
1.207e-04
1.237e-04
1.272e-04
1.308e-04
1.239e-04
1.296e-04
1.335e-04
1.355e-04
1.396e-04
1.436e-04
1.373e-04
1.413e-04
1.455e-04
1.471e-04
1.514e-04
1.557e-04
1.497e-04
1.528e-04
1.571e-04
1.586e-04
1.627e-04
1.668e-04
1.614e-04
1.272e-04
1.343e-04
1.375e-04
1.305e-04
1.409e-04
1.473e-04
1.506e-04
1.441e-04
1.535e-04
1.596e-04
1.632e-04
1.570e-04
1.654e-04
1.709e-04
1.751e-04
1.692e-04
1.336e-04
1.404e-04
1.470e-04
1.536e-04
1.601e-04
1.666e-04
1.731e-04
1.795e-04
3.351e-05
3.879e-05
4.493e-05
4.523e-05
3.849e-05
3.286e-05
5.105e-05
5.711e-05
5.824e-05
5.185e-05
6.311e-05
6.908e-05
7.045e-05
6.443e-05
7.493e-05
7.625e-05
3.247e-05
3.852e-05
4.567e-05
4.608e-05
3.876e-05
3.239e-05
5.258e-05
5.915e-05
5.972e-05
5.305e-05
6.548e-05
7.160e-05
7.259e-05
6.623e-05
7.754e-05
7.892e-05
3.271e-05
3.922e-05
4.649e-05
4.706e-05
3.980e-05
3.312e-05
5.345e-05
6.027e-05
6.128e-05
5.418e-05
6.705e-05
7.380e-05
7.546e-05
6.837e-05
8.059e-05
8.252e-05
7.380e-05
8.138e-05
5.684e-05
4.957e-05
8.792e-05
9.468e-05
6.899e-05
6.280e-05
1.015e-04
1.086e-04
8.228e-05
7.541e-05
1.164e-04
9.016e-05
2.507e-05
3.161e-05
6.218e-06
5.178e-07
3.739e-05
4.324e-05
1.759e-05
1.191e-05
4.946e-05
5.624e-05
3.047e-05
2.375e-05
6.406e-05
3.806e-05
-2.394e-05
-1.888e-05
-1.340e-05
-7.759e-06
-1.634e-06
4.989e-06
1.221e-05
9.089e-05
9.869e-05
1.069e-04
1.093e-04
1.004e-04
9.229e-05
1.151e-04
1.231e-04
1.263e-04
1.179e-04
1.310e-04
1.387e-04
1.421e-04
1.344e-04
1.461e-04
1.534e-04
1.565e-04
1.494e-04
9.395e-05
1.025e-04
1.117e-04
1.141e-04
1.047e-04
9.590e-05
1.207e-04
1.293e-04
1.318e-04
1.231e-04
1.375e-04
1.453e-04
1.480e-04
1.401e-04
1.525e-04
1.597e-04
1.631e-04
1.556e-04
9.817e-05
1.071e-04
1.163e-04
1.185e-04
1.094e-04
1.006e-04
1.252e-04
1.340e-04
1.362e-04
1.274e-04
1.425e-04
1.507e-04
1.534e-04
1.449e-04
1.586e-04
1.666e-04
1.701e-04
1.618e-04
1.400e-04
1.466e-04
1.500e-04
1.433e-04
1.534e-04
1.603e-04
1.641e-04
1.570e-04
1.672e-04
1.743e-04
1.785e-04
1.713e-04
1.814e-04
1.888e-04
1.936e-04
1.860e-04
1.467e-04
1.537e-04
1.576e-04
1.504e-04
1.609e-04
1.682e-04
1.724e-04
1.650e-04
1.755e-04
1.830e-04
1.875e-04
1.799e-04
1.906e-04
1.983e-04
2.030e-04
1.952e-04
1.542e-04
1.617e-04
1.657e-04
1.579e-04
1.692e-04
1.768e-04
1.811e-04
1.734e-04
1.844e-04
1.921e-04
1.966e-04
1.888e-04
1.998e-04
2.076e-04
2.122e-04
2.043e-04
5.372e-06
9.026e-06
-4.338e-06
7.288e-08
1.357e-05
3.955e-06
-8.996e-06
-1.176e-05
-1.453e-05
1.765e-05
5.562e-06
2.138e-05
6.908e-06
-9.246e-06
-8.976e-06
2.479e-05
8.061e-06
2.799e-05
9.687e-06
-8.740e-06
-9.458e-06
3.101e-05
1.228e-05
-6.645e-06
-2.475e-05
-2.446e-05
-2.394e-05
-3.934e-05
-3.730e-05
-3.497e-05
-2.494e-05
-2.635e-05
-4.357e-05
-4.131e-05
-2.734e-05
-2.729e-05
-4.562e-05
-4.507e-05
-2.568e-05
-4.465e-05
-4.516e-05
-4.973e-05
-5.381e-05
-6.647e-05
-6.064e-05
-5.495e-05
-5.708e-05
-6.008e-05
-7.515e-05
-7.131e-05
-6.213e-05
-6.328e-05
-8.000e-05
-7.803e-05
-6.328e-05
-8.109e-05
1.037e-05
1.175e-05
1.242e-05
-8.826e-06
-1.017e-05
-1.192e-05
1.311e-05
1.376e-05
-6.501e-06
-7.617e-06
1.423e-05
-5.501e-06
-3.391e-05
-3.202e-05
-3.015e-05
-5.144e-05
-5.382e-05
-5.583e-05
-2.838e-05
-2.672e-05
-4.697e-05
-4.915e-05
-2.517e-05
-4.485e-05
-7.789e-05
-7.554e-05
-7.262e-05
-9.374e-05
-9.694e-05
-1.001e-04
-6.990e-05
-6.729e-05
-8.753e-05
-9.057e-05
-6.464e-05
-8.465e-05
-6.367e-05
-6.596e-05
-4.753e-05
-4.942e-05
-6.831e-05
-5.167e-05
-3.470e-05
-3.286e-05
-3.126e-05
-7.113e-05
-5.400e-05
-7.436e-05
-5.664e-05
-3.866e-05
-3.660e-05
-7.794e-05
-5.962e-05
-4.088e-05
-1.505e-05
-1.639e-05
-1.776e-05
-8.579e-07
2.751e-08
1.112e-06
-1.915e-05
-2.059e-05
-2.548e-06
-1.738e-06
-2.210e-05
-3.336e-06
1.725e-05
1.645e-05
1.599e-05
1.556e-05
1.534e-05
1.534e-05
-8.190e-05
-8.527e-05
-8.743e-05
-8.417e-05
-8.894e-05
-9.291e-05
-9.496e-05
-9.102e-05
-9.720e-05
-1.019e-04
-1.039e-04
-9.930e-05
-8.583e-05
-8.901e-05
-8.995e-05
-8.684e-05
-9.254e-05
-9.640e-05
-9.710e-05
-9.337e-05
-1.006e-04
-1.050e-04
-1.054e-04
-1.011e-04
-8.719e-05
-9.020e-05
-8.979e-05
-8.682e-05
-9.351e-05
-9.712e-05
-9.648e-05
-9.303e-05
-1.010e-04
-1.051e-04
-1.041e-04
-1.002e-04
-8.584e-05
-8.881e-05
-9.194e-05
-9.524e-05
-9.869e-05
-1.023e-04
-5.611e-05
-5.924e-05
-6.244e-05
-6.536e-05
-6.233e-05
-5.938e-05
-6.601e-05
-6.993e-05
-7.258e-05
-6.878e-05
-7.420e-05
-7.675e-05
-6.192e-05
-6.474e-05
-6.764e-05
-6.923e-05
-6.645e-05
-6.375e-05
-7.093e-05
-7.460e-05
-7.591e-05
-7.238e-05
-7.863e-05
-7.982e-05
-6.482e-05
-6.742e-05
-7.006e-05
-7.011e-05
-6.758e-05
-6.512e-05
-7.309e-05
-7.650e-05
-7.635e-05
-7.305e-05
-8.031e-05
-8.006e-05
-6.451e-05
-6.688e-05
-6.935e-05
-7.221e-05
-7.548e-05
-7.912e-05
-7.410e-05
-4.625e-05
-4.909e-05
-7.658e-05
-1.850e-05
9.231e-06
5.994e-06
-2.147e-05
3.696e-05
3.305e-05
-7.821e-05
-5.131e-05
-5.334e-05
-7.951e-05
-2.446e-05
2.239e-06
-9.829e-07
-2.709e-05
2.870e-05
2.480e-05
-7.999e-05
-5.462e-05
-5.563e-05
-8.012e-05
-2.921e-05
-3.935e-06
-6.139e-06
-3.081e-05
2.104e-05
1.792e-05
-7.947e-05
-5.589e-05
-3.223e-05
-8.673e-06
1.459e-05
2.368e-05
3.025e-05
1.169e-05
6.161e-06
3.545e-05
4.081e-05
1.975e-05
1.565e-05
4.623e-05
5.207e-05
2.910e-05
2.403e-05
5.903e-05
3.575e-05
-1.175e-05
-7.956e-06
-2.778e-05
-2.973e-05
-4.771e-06
-1.636e-06
-2.293e-05
-2.530e-05
1.901e-06
6.353e-06
-1.608e-05
-1.994e-05
1.246e-05
-1.076e-05
-4.754e-05
-4.697e-05
-4.545e-05
-4.372e-05
-4.126e-05
-3.801e-05
-3.371e-05
-3.246e-05
-3.512e-05
-1.013e-05
-1.282e-05
-3.787e-05
-1.565e-05
6.742e-06
9.479e-06
1.213e-05
-4.099e-05
-1.858e-05
-4.447e-05
-2.175e-05
1.092e-06
3.974e-06
-4.828e-05
-2.517e-05
-1.898e-06
3.429e-05
3.172e-05
2.914e-05
5.151e-05
5.392e-05
5.642e-05
2.657e-05
2.400e-05
4.689e-05
4.915e-05
2.139e-05
4.467e-05
7.853e-05
7.609e-05
7.382e-05
7.165e-05
6.967e-05
6.789e-05
2.587e-05
1.754e-05
2.205e-05
1.366e-05
5.450e-06
9.351e-06
1.811e-05
9.739e-06
1.409e-05
5.785e-06
-2.438e-06
1.525e-06
1.003e-05
1.798e-06
5.992e-06
-2.184e-06
-1.046e-05
-6.443e-06
1.308e-06
-2.607e-06
-1.051e-05
-6.592e-06
-6.557e-06
-1.055e-05
-1.852e-05
-1.448e-05
-1.461e-05
-1.871e-05
-2.685e-05
-2.264e-05
-1.432e-05
-1.823e-05
-2.572e-05
-2.184e-05
-2.220e-05
-2.628e-05
-3.379e-05
-2.969e-05
-3.048e-05
-3.478e-05
-4.246e-05
-3.805e-05
-2.911e-05
-3.296e-05
-3.694e-05
-4.106e-05
-4.533e-05
-4.977e-05
5.774e-05
5.296e-05
4.957e-05
4.494e-05
4.820e-05
4.028e-05
3.230e-05
3.684e-05
4.132e-05
4.345e-05
3.560e-05
3.873e-05
3.089e-05
2.292e-05
2.765e-05
3.410e-05
2.615e-05
1.812e-05
3.303e-05
2.866e-05
2.421e-05
1.615e-05
2.053e-05
2.482e-05
1.962e-05
1.492e-05
6.988e-06
1.164e-05
1.011e-05
2.209e-06
1.674e-05
1.251e-05
8.215e-06
4.121e-07
4.660e-06
8.839e-06
3.764e-06
-8.345e-07
-8.524e-06
-3.992e-06
-5.570e-06
-1.319e-05
1.166e-06
-3.021e-06
-7.251e-06
-1.160e-05
-1.606e-05
-2.065e-05
1.809e-05
1.427e-05
1.004e-05
6.222e-06
1.048e-05
2.569e-06
-5.054e-06
-1.523e-06
2.338e-06
6.530e-06
-1.197e-06
2.399e-06
-5.116e-06
-1.230e-05
-8.612e-06
-1.897e-06
-9.215e-06
-1.619e-05
-4.833e-06
-8.630e-06
-1.203e-05
-1.834e-05
-1.510e-05
-1.147e-05
-1.542e-05
-1.895e-05
-2.505e-05
-2.160e-05
-2.273e-05
-2.880e-05
-1.755e-05
-2.095e-05
-2.402e-05
-2.912e-05
-2.619e-05
-2.308e-05
-2.720e-05
-3.063e-05
-3.569e-05
-3.226e-05
-3.440e-05
-3.950e-05
-2.799e-05
-3.083e-05
-3.367e-05
-3.680e-05
-4.029e-05
-4.411e-05
1.330e-04
1.372e-04
1.075e-04
1.117e-04
1.159e-04
1.413e-04
1.455e-04
1.200e-04
1.241e-04
1.496e-04
1.539e-04
1.283e-04
8.209e-05
8.623e-05
5.673e-05
6.082e-05
6.494e-05
9.039e-05
9.451e-05
6.902e-05
7.306e-05
9.860e-05
1.027e-04
7.708e-05
3.137e-05
3.544e-05
3.952e-05
4.356e-05
4.755e-05
5.147e-05
1.630e-04
1.372e-04
1.419e-04
1.677e-04
1.724e-04
1.467e-04
1.514e-04
1.771e-04
1.818e-04
1.560e-04
1.607e-04
1.864e-04
1.115e-04
8.571e-05
9.039e-05
1.162e-04
1.209e-04
9.511e-05
9.984e-05
1.256e-04
1.303e-04
1.046e-04
1.093e-04
1.350e-04
5.996e-05
6.462e-05
6.933e-05
7.407e-05
7.882e-05
8.361e-05
2.283e-05
4.796e-05
3.923e-05
1.429e-05
7.332e-05
9.907e-05
9.095e-05
6.469e-05
1.254e-04
1.183e-04
6.265e-06
3.149e-05
2.415e-05
-1.471e-06
5.731e-05
8.404e-05
7.745e-05
5.036e-05
1.119e-04
1.057e-04
-8.840e-06
1.732e-05
1.099e-05
-1.585e-05
4.398e-05
7.141e-05
6.615e-05
3.831e-05
9.985e-05
9.456e-05
-2.246e-05
5.216e-06
3.315e-05
6.128e-05
8.953e-05
2.725e-05
5.337e-05
6.095e-05
3.486e-05
7.951e-05
1.057e-04
1.133e-04
8.713e-05
1.319e-04
1.395e-04
4.270e-05
6.868e-05
7.653e-05
5.067e-05
9.472e-05
1.208e-04
1.285e-04
1.025e-04
1.470e-04
1.547e-04
5.878e-05
8.455e-05
9.279e-05
6.708e-05
1.104e-04
1.364e-04
1.443e-04
1.185e-04
1.625e-04
1.703e-04
7.540e-05
1.011e-04
1.268e-04
1.525e-04
1.783e-04
4.352e-05
3.973e-05
3.590e-05
6.140e-05
6.517e-05
6.892e-05
3.204e-05
2.805e-05
5.376e-05
5.761e-05
2.394e-05
4.985e-05
9.425e-05
9.058e-05
8.690e-05
1.124e-04
1.160e-04
1.196e-04
8.321e-05
7.951e-05
1.052e-04
1.088e-04
7.577e-05
1.017e-04
1.449e-04
1.413e-04
1.378e-04
1.343e-04
1.309e-04
1.276e-04
1.234e-05
1.486e-05
1.176e-05
1.424e-05
1.816e-05
1.785e-05
1.753e-05
1.360e-05
1.091e-05
2.128e-05
2.133e-05
2.421e-05
2.451e-05
2.464e-05
2.130e-05
2.686e-05
2.730e-05
2.927e-05
2.966e-05
2.970e-05
2.746e-05
3.128e-05
3.143e-05
3.145e-05
9.873e-06
1.284e-05
1.700e-05
1.608e-05
1.183e-05
8.652e-06
2.090e-05
2.427e-05
2.335e-05
1.998e-05
2.708e-05
2.934e-05
2.875e-05
2.624e-05
3.131e-05
3.112e-05
7.247e-06
1.054e-05
1.484e-05
1.874e-05
2.221e-05
2.533e-05
2.822e-05
3.102e-05
2.810e-06
6.766e-06
1.179e-05
1.014e-05
4.552e-06
3.582e-07
1.635e-05
2.048e-05
1.971e-05
1.522e-05
2.420e-05
2.755e-05
2.701e-05
2.365e-05
3.045e-05
2.978e-05
-1.831e-06
2.657e-06
8.632e-06
7.065e-06
8.899e-07
-3.815e-06
1.404e-05
1.877e-05
1.745e-05
1.261e-05
2.284e-05
2.625e-05
2.538e-05
2.169e-05
2.916e-05
2.869e-05
-5.567e-06
-7.850e-07
5.452e-06
3.900e-06
-2.438e-06
-7.547e-06
1.103e-05
1.602e-05
1.481e-05
9.569e-06
2.056e-05
2.471e-05
2.431e-05
1.969e-05
2.858e-05
2.865e-05
3.274e-05
3.965e-05
4.725e-05
4.775e-05
3.962e-05
3.234e-05
5.480e-05
6.228e-05
6.361e-05
5.579e-05
6.966e-05
7.693e-05
7.849e-05
7.120e-05
8.394e-05
8.536e-05
3.228e-05
3.998e-05
4.852e-05
4.932e-05
4.061e-05
3.265e-05
5.686e-05
6.487e-05
6.578e-05
5.771e-05
7.257e-05
7.989e-05
8.112e-05
7.361e-05
8.682e-05
8.840e-05
3.355e-05
4.155e-05
5.010e-05
5.084e-05
4.256e-05
3.469e-05
5.837e-05
6.651e-05
6.731e-05
5.905e-05
7.454e-05
8.244e-05
8.394e-05
7.561e-05
9.025e-05
9.228e-05
8.799e-05
9.825e-05
7.607e-05
6.551e-05
1.075e-04
1.162e-04
9.408e-05
8.544e-05
1.241e-04
1.314e-04
1.080e-04
1.016e-04
1.380e-04
1.134e-04
4.247e-05
5.232e-05
2.757e-05
1.905e-05
6.164e-05
7.004e-05
4.434e-05
3.639e-05
7.729e-05
8.337e-05
5.757e-05
5.145e-05
8.824e-05
6.263e-05
-4.588e-06
2.339e-06
9.941e-06
1.716e-05
2.410e-05
3.062e-05
3.659e-05
1.026e-04
1.114e-04
1.204e-04
1.225e-04
1.135e-04
1.045e-04
1.294e-04
1.384e-04
1.409e-04
1.317e-04
1.473e-04
1.562e-04
1.591e-04
1.500e-04
1.649e-04
1.735e-04
1.769e-04
1.681e-04
1.067e-04
1.158e-04
1.251e-04
1.280e-04
1.184e-04
1.090e-04
1.344e-04
1.438e-04
1.471e-04
1.376e-04
1.531e-04
1.624e-04
1.659e-04
1.565e-04
1.715e-04
1.804e-04
1.841e-04
1.751e-04
1.117e-04
1.214e-04
1.313e-04
1.350e-04
1.248e-04
1.147e-04
1.411e-04
1.508e-04
1.548e-04
1.450e-04
1.603e-04
1.697e-04
1.739e-04
1.645e-04
1.789e-04
1.880e-04
1.922e-04
1.831e-04
1.612e-04
1.692e-04
1.727e-04
1.644e-04
1.772e-04
1.851e-04
1.891e-04
1.810e-04
1.930e-04
2.008e-04
2.051e-04
1.972e-04
2.087e-04
2.167e-04
2.210e-04
2.131e-04
1.678e-04
1.763e-04
1.802e-04
1.715e-04
1.849e-04
1.932e-04
1.974e-04
1.889e-04
2.014e-04
2.095e-04
2.138e-04
2.057e-04
2.174e-04
2.251e-04
2.292e-04
2.216e-04
1.753e-04
1.843e-04
1.883e-04
1.791e-04
1.931e-04
2.017e-04
2.059e-04
1.972e-04
2.101e-04
2.181e-04
2.223e-04
2.143e-04
2.258e-04
2.332e-04
2.373e-04
2.299e-04
-3.169e-06
-1.195e-06
-5.121e-06
-2.302e-06
1.407e-06
-1.495e-07
-4.968e-06
-6.100e-06
-7.616e-06
3.463e-06
-3.279e-07
4.935e-06
-1.357e-06
-9.248e-06
-6.615e-06
5.781e-06
-2.949e-06
6.016e-06
-4.161e-06
-1.415e-05
-1.220e-05
5.568e-06
-4.467e-06
-1.456e-05
-1.018e-05
-1.072e-05
-1.156e-05
-1.849e-05
-1.546e-05
-1.275e-05
-1.422e-05
-1.788e-05
-2.642e-05
-2.208e-05
-2.151e-05
-2.404e-05
-3.348e-05
-3.039e-05
-2.458e-05
-3.444e-05
-1.529e-05
-1.980e-05
-2.453e-05
-2.874e-05
-2.265e-05
-1.741e-05
-2.919e-05
-3.405e-05
-3.995e-05
-3.457e-05
-3.834e-05
-4.188e-05
-4.879e-05
-4.473e-05
-4.387e-05
-5.194e-05
-1.353e-06
-1.012e-06
-1.401e-06
-1.394e-05
-1.419e-05
-1.485e-05
-1.868e-06
-2.531e-06
-1.401e-05
-1.388e-05
-3.558e-06
-1.433e-05
-2.806e-05
-2.727e-05
-2.649e-05
-3.897e-05
-4.024e-05
-4.115e-05
-2.585e-05
-2.536e-05
-3.671e-05
-3.779e-05
-2.501e-05
-3.568e-05
-5.426e-05
-5.308e-05
-5.132e-05
-6.350e-05
-6.543e-05
-6.723e-05
-4.973e-05
-4.817e-05
-5.943e-05
-6.148e-05
-4.644e-05
-5.734e-05
-4.290e-05
-4.464e-05
-3.726e-05
-3.816e-05
-4.609e-05
-3.942e-05
-3.203e-05
-3.139e-05
-3.097e-05
-4.780e-05
-4.055e-05
-4.982e-05
-4.191e-05
-3.331e-05
-3.263e-05
-5.223e-05
-4.364e-05
-3.417e-05
-2.475e-05
-2.478e-05
-2.474e-05
-1.750e-05
-1.824e-05
-1.863e-05
-2.466e-05
-2.459e-05
-1.591e-05
-1.673e-05
-2.461e-05
-1.506e-05
-1.264e-05
-1.171e-05
-1.025e-05
-8.892e-06
-7.387e-06
-5.628e-06
-8.383e-05
-8.654e-05
-8.501e-05
-8.250e-05
-8.939e-05
-9.240e-05
-9.059e-05
-8.771e-05
-9.553e-05
-9.889e-05
-9.683e-05
-9.368e-05
-8.037e-05
-8.271e-05
-7.952e-05
-7.734e-05
-8.525e-05
-8.797e-05
-8.436e-05
-8.187e-05
-9.082e-05
-9.371e-05
-8.972e-05
-8.699e-05
-7.337e-05
-7.538e-05
-7.042e-05
-6.844e-05
-7.757e-05
-7.988e-05
-7.467e-05
-7.252e-05
-8.232e-05
-8.489e-05
-7.937e-05
-7.693e-05
-6.276e-05
-6.483e-05
-6.689e-05
-6.895e-05
-7.102e-05
-7.320e-05
-6.426e-05
-6.645e-05
-6.865e-05
-6.855e-05
-6.649e-05
-6.436e-05
-7.126e-05
-7.425e-05
-7.368e-05
-7.095e-05
-7.759e-05
-7.676e-05
-6.340e-05
-6.547e-05
-6.741e-05
-6.517e-05
-6.337e-05
-6.141e-05
-6.962e-05