# vtk DataFile Version 3.0
vtk output
ASCII
DATASET UNSTRUCTURED_GRID
POINTS 8851 double
4.003015e+00 5.165113e-01 -6.024641e+00
4.047906e+00 5.234540e-01 -6.110707e+00
4.003015e+00 5.582539e-01 -6.024641e+00
4.047906e+00 5.648115e-01 -6.110707e+00
4.092797e+00 5.303967e-01 -6.196774e+00
4.092797e+00 5.713691e-01 -6.196774e+00
4.092797e+00 6.123415e-01 -6.196774e+00
4.047906e+00 6.061690e-01 -6.110707e+00
4.003015e+00 5.999965e-01 -6.024641e+00
4.137688e+00 5.373395e-01 -6.282840e+00
4.137688e+00 5.779271e-01 -6.282840e+00
4.182578e+00 5.442824e-01 -6.368906e+00
4.182579e+00 5.844851e-01 -6.368906e+00
4.182579e+00 6.246878e-01 -6.368906e+00
4.137688e+00 6.185146e-01 -6.282840e+00
4.227469e+00 5.512253e-01 -6.454972e+00
4.227469e+00 5.910435e-01 -6.454972e+00
4.272360e+00 5.581684e-01 -6.541039e+00
4.272360e+00 5.976019e-01 -6.541039e+00
4.272360e+00 6.370355e-01 -6.541039e+00
4.227469e+00 6.308616e-01 -6.454973e+00
4.317251e+00 5.651114e-01 -6.627105e+00
4.317251e+00 6.041607e-01 -6.627105e+00
4.362141e+00 5.720546e-01 -6.713171e+00
4.362141e+00 6.107196e-01 -6.713171e+00
4.362141e+00 6.493847e-01 -6.713171e+00
4.317251e+00 6.432101e-01 -6.627105e+00
4.407032e+00 5.789978e-01 -6.799238e+00
4.407032e+00 6.172790e-01 -6.799238e+00
4.451923e+00 5.859411e-01 -6.885304e+00
4.451923e+00 6.238383e-01 -6.885304e+00
4.451923e+00 6.617355e-01 -6.885304e+00
4.407032e+00 6.555601e-01 -6.799238e+00
4.003015e+00 6.417391e-01 -6.024641e+00
4.047906e+00 6.475265e-01 -6.110707e+00
4.092797e+00 6.533138e-01 -6.196774e+00
4.092797e+00 6.942862e-01 -6.196774e+00
4.047906e+00 6.888840e-01 -6.110707e+00
4.003015e+00 6.834817e-01 -6.024641e+00
4.137688e+00 6.591021e-01 -6.282840e+00
4.182579e+00 6.648905e-01 -6.368906e+00
4.182579e+00 7.050931e-01 -6.368906e+00
4.137688e+00 6.996897e-01 -6.282840e+00
4.227469e+00 6.706797e-01 -6.454973e+00
4.272360e+00 6.764691e-01 -6.541039e+00
4.272360e+00 7.159026e-01 -6.541039e+00
4.227469e+00 7.104979e-01 -6.454973e+00
4.317251e+00 6.822594e-01 -6.627105e+00
4.362142e+00 6.880498e-01 -6.713171e+00
4.362142e+00 7.267148e-01 -6.713171e+00
4.317251e+00 7.213088e-01 -6.627105e+00
4.407032e+00 6.938413e-01 -6.799238e+00
4.451923e+00 6.996328e-01 -6.885304e+00
4.451923e+00 7.375300e-01 -6.885304e+00
4.407032e+00 7.321224e-01 -6.799238e+00
4.003015e+00 7.252243e-01 -6.024641e+00
4.047906e+00 7.302412e-01 -6.110707e+00
4.092797e+00 7.352586e-01 -6.196774e+00
4.092797e+00 7.762309e-01 -6.196774e+00
4.047906e+00 7.715985e-01 -6.110707e+00
4.003015e+00 7.669669e-01 -6.024641e+00
4.137688e+00 7.402770e-01 -6.282840e+00
4.182579e+00 7.452958e-01 -6.368906e+00
4.182579e+00 7.854985e-01 -6.368906e+00
4.137688e+00 7.808643e-01 -6.282840e+00
4.227469e+00 7.503158e-01 -6.454973e+00
4.272360e+00 7.553362e-01 -6.541039e+00
4.272360e+00 7.947698e-01 -6.541039e+00
4.227469e+00 7.901337e-01 -6.454973e+00
4.317251e+00 7.603578e-01 -6.627105e+00
4.362142e+00 7.653800e-01 -6.713171e+00
4.362142e+00 8.040450e-01 -6.713171e+00
4.317251e+00 7.994069e-01 -6.627105e+00
4.407032e+00 7.704033e-01 -6.799238e+00
4.451923e+00 7.754272e-01 -6.885304e+00
4.451923e+00 8.133244e-01 -6.885304e+00
4.407032e+00 8.086842e-01 -6.799238e+00
4.068507e+00 5.207182e-01 -6.024641e+00
4.112803e+00 5.275370e-01 -6.110695e+00
4.157100e+00 5.343559e-01 -6.196749e+00
4.221454e+00 5.373698e-01 -6.196774e+00
4.177754e+00 5.306646e-01 -6.110707e+00
4.134054e+00 5.239594e-01 -6.024641e+00
4.201396e+00 5.411754e-01 -6.282815e+00
4.245693e+00 5.479951e-01 -6.368882e+00
4.308855e+00 5.507806e-01 -6.368906e+00
4.265154e+00 5.440751e-01 -6.282840e+00
4.289989e+00 5.548149e-01 -6.454948e+00
4.334285e+00 5.616347e-01 -6.541014e+00
4.396255e+00 5.641918e-01 -6.541039e+00
4.352555e+00 5.574861e-01 -6.454972e+00
4.378582e+00 5.684546e-01 -6.627080e+00
4.422878e+00 5.752746e-01 -6.713147e+00
4.483655e+00 5.776033e-01 -6.713171e+00
4.439955e+00 5.708975e-01 -6.627105e+00
4.467174e+00 5.820954e-01 -6.799225e+00
4.511470e+00 5.889164e-01 -6.885304e+00
4.571055e+00 5.910154e-01 -6.885304e+00
4.527355e+00 5.843093e-01 -6.799238e+00
4.199646e+00 5.260625e-01 -6.024641e+00
4.242749e+00 5.326626e-01 -6.110686e+00
4.285851e+00 5.392627e-01 -6.196733e+00
4.350272e+00 5.399194e-01 -6.196774e+00
4.307770e+00 5.334099e-01 -6.110707e+00
4.265267e+00 5.269005e-01 -6.024641e+00
4.328953e+00 5.458643e-01 -6.282799e+00
4.372055e+00 5.524660e-01 -6.368865e+00
4.435277e+00 5.529389e-01 -6.368906e+00
4.392775e+00 5.464291e-01 -6.282840e+00
4.415157e+00 5.590678e-01 -6.454931e+00
4.458260e+00 5.656698e-01 -6.540998e+00
4.520281e+00 5.659589e-01 -6.541039e+00
4.477779e+00 5.594488e-01 -6.454972e+00
4.501361e+00 5.722718e-01 -6.627064e+00
4.544464e+00 5.788740e-01 -6.713130e+00
4.605285e+00 5.789794e-01 -6.713171e+00
4.562783e+00 5.724691e-01 -6.627105e+00
4.587565e+00 5.854778e-01 -6.799217e+00
4.630667e+00 5.920817e-01 -6.885304e+00
4.690289e+00 5.920005e-01 -6.885304e+00
4.647788e+00 5.854899e-01 -6.799238e+00
4.330891e+00 5.263340e-01 -6.024641e+00
4.372792e+00 5.327629e-01 -6.110692e+00
4.414692e+00 5.391920e-01 -6.196742e+00
4.479100e+00 5.377140e-01 -6.196774e+00
4.437802e+00 5.313562e-01 -6.110707e+00
4.396504e+00 5.249985e-01 -6.024641e+00
4.456593e+00 5.456225e-01 -6.282808e+00
4.498493e+00 5.520532e-01 -6.368875e+00
4.561695e+00 5.504301e-01 -6.368906e+00
4.520398e+00 5.440720e-01 -6.282840e+00
4.540394e+00 5.584840e-01 -6.454941e+00
4.582294e+00 5.649149e-01 -6.541008e+00
4.644290e+00 5.631468e-01 -6.541039e+00
4.602993e+00 5.567884e-01 -6.454972e+00
4.624194e+00 5.713460e-01 -6.627074e+00
4.666095e+00 5.777773e-01 -6.713140e+00
4.726886e+00 5.758643e-01 -6.713171e+00
4.685588e+00 5.695055e-01 -6.627105e+00
4.707995e+00 5.842102e-01 -6.799222e+00
4.749895e+00 5.906433e-01 -6.885304e+00
4.809481e+00 5.885825e-01 -6.885304e+00
4.768184e+00 5.822233e-01 -6.799238e+00
4.462110e+00 5.233006e-01 -6.024641e+00
4.502804e+00 5.295883e-01 -6.110698e+00
4.543499e+00 5.358760e-01 -6.196755e+00
4.607885e+00 5.336308e-01 -6.196774e+00
4.567794e+00 5.274076e-01 -6.110707e+00
4.527702e+00 5.211846e-01 -6.024641e+00
4.584193e+00 5.421646e-01 -6.282822e+00
4.624888e+00 5.484535e-01 -6.368888e+00
4.688067e+00 5.460777e-01 -6.368906e+00
4.647976e+00 5.398541e-01 -6.282840e+00
4.665583e+00 5.547425e-01 -6.454955e+00
4.706277e+00 5.610317e-01 -6.541021e+00
4.768249e+00 5.585253e-01 -6.541039e+00
4.728158e+00 5.523014e-01 -6.454972e+00
4.746972e+00 5.673211e-01 -6.627087e+00
4.787666e+00 5.736107e-01 -6.713154e+00
4.848432e+00 5.709738e-01 -6.713171e+00
4.808340e+00 5.647495e-01 -6.627105e+00
4.828361e+00 5.799013e-01 -6.799229e+00
4.869056e+00 5.861921e-01 -6.885304e+00
4.928614e+00 5.834232e-01 -6.885304e+00
4.888523e+00 5.771984e-01 -6.799238e+00
3.478328e+00 5.270878e-01 -6.024641e+00
3.528018e+00 5.346177e-01 -6.110707e+00
3.521528e+00 4.969786e-01 -6.024641e+00
3.570901e+00 5.050218e-01 -6.112068e+00
3.577709e+00 5.421475e-01 -6.196774e+00
3.620276e+00 5.130691e-01 -6.199492e+00
3.671235e+00 5.052728e-01 -6.196774e+00
3.622463e+00 4.975280e-01 -6.110707e+00
3.573691e+00 4.897831e-01 -6.024641e+00
3.627399e+00 5.496773e-01 -6.282840e+00
3.669533e+00 5.208144e-01 -6.285541e+00
3.677090e+00 5.572072e-01 -6.368906e+00
3.718790e+00 5.285597e-01 -6.371590e+00
3.768778e+00 5.207625e-01 -6.368906e+00
3.720006e+00 5.130177e-01 -6.282840e+00
3.726780e+00 5.647370e-01 -6.454972e+00
3.768047e+00 5.363050e-01 -6.457638e+00
3.776470e+00 5.722668e-01 -6.541039e+00
3.817304e+00 5.440503e-01 -6.543687e+00
3.866321e+00 5.362522e-01 -6.541039e+00
3.817550e+00 5.285074e-01 -6.454972e+00
3.826161e+00 5.797966e-01 -6.627105e+00
3.866561e+00 5.517955e-01 -6.629735e+00
3.875851e+00 5.873265e-01 -6.713171e+00
3.915817e+00 5.595409e-01 -6.715784e+00
3.963865e+00 5.517420e-01 -6.713171e+00
3.915093e+00 5.439971e-01 -6.627105e+00
3.925542e+00 5.948563e-01 -6.799238e+00
3.964957e+00 5.669972e-01 -6.800544e+00
3.975232e+00 6.023861e-01 -6.885304e+00
4.014096e+00 5.744549e-01 -6.885304e+00
4.061408e+00 5.672319e-01 -6.885304e+00
4.012636e+00 5.594869e-01 -6.799238e+00
3.627477e+00 4.889637e-01 -6.024641e+00
3.675757e+00 4.966502e-01 -6.110764e+00
3.724037e+00 5.043369e-01 -6.196887e+00
3.776815e+00 5.062238e-01 -6.196774e+00
3.729022e+00 4.986309e-01 -6.110707e+00
3.681230e+00 4.910379e-01 -6.024641e+00
3.772317e+00 5.120190e-01 -6.282954e+00
3.820597e+00 5.197011e-01 -6.369020e+00
3.872400e+00 5.214098e-01 -6.368906e+00
3.824607e+00 5.138168e-01 -6.282840e+00
3.868877e+00 5.273833e-01 -6.455086e+00
3.917158e+00 5.350654e-01 -6.541152e+00
3.967985e+00 5.365959e-01 -6.541039e+00
3.920192e+00 5.290028e-01 -6.454972e+00
3.965438e+00 5.427476e-01 -6.627219e+00
4.013718e+00 5.504299e-01 -6.713285e+00
4.063570e+00 5.517822e-01 -6.713171e+00
4.015777e+00 5.441890e-01 -6.627105e+00
4.061998e+00 5.581072e-01 -6.799294e+00
4.110278e+00 5.657845e-01 -6.885304e+00
4.159154e+00 5.669686e-01 -6.885304e+00
4.111362e+00 5.593753e-01 -6.799238e+00
3.734912e+00 4.945827e-01 -6.024641e+00
3.782220e+00 5.020738e-01 -6.110716e+00
3.829527e+00 5.095649e-01 -6.196791e+00
3.882189e+00 5.136368e-01 -6.196774e+00
3.835365e+00 5.062550e-01 -6.110707e+00
3.788541e+00 4.988731e-01 -6.024641e+00
3.876835e+00 5.170557e-01 -6.282857e+00
3.924142e+00 5.245464e-01 -6.368924e+00
3.975837e+00 5.284005e-01 -6.368906e+00
3.929013e+00 5.210186e-01 -6.282840e+00
3.971450e+00 5.320373e-01 -6.454990e+00
4.018757e+00 5.395282e-01 -6.541057e+00
4.069485e+00 5.431644e-01 -6.541039e+00
4.022661e+00 5.357825e-01 -6.454972e+00
4.066065e+00 5.470191e-01 -6.627123e+00
4.113372e+00 5.545101e-01 -6.713189e+00
4.163133e+00 5.579286e-01 -6.713171e+00
4.116309e+00 5.505465e-01 -6.627105e+00
4.160680e+00 5.620006e-01 -6.799246e+00
4.207987e+00 5.694911e-01 -6.885304e+00
4.256781e+00 5.726928e-01 -6.885304e+00
4.209957e+00 5.653107e-01 -6.799238e+00
3.842144e+00 5.034713e-01 -6.024641e+00
3.888485e+00 5.107414e-01 -6.110707e+00
3.934826e+00 5.180117e-01 -6.196774e+00
3.987463e+00 5.223978e-01 -6.196774e+00
3.941605e+00 5.152392e-01 -6.110707e+00
[...]
POINT_DATA 8851
SCALARS u double 1
LOOKUP_TABLE default
3.217e-03
3.277e-03
2.938e-03
3.001e-03
3.337e-03
3.064e-03
2.788e-03
2.723e-03
2.660e-03
3.397e-03
3.125e-03
3.458e-03
3.186e-03
2.913e-03
2.851e-03
3.518e-03
3.248e-03
3.579e-03
3.309e-03
3.038e-03
2.976e-03
3.639e-03
3.370e-03
3.699e-03
3.432e-03
3.164e-03
3.101e-03
3.759e-03
3.494e-03
3.820e-03
3.557e-03
3.294e-03
3.229e-03
2.381e-03
2.446e-03
2.511e-03
2.234e-03
2.168e-03
2.103e-03
2.575e-03
2.639e-03
2.364e-03
2.299e-03
2.703e-03
2.767e-03
2.496e-03
2.430e-03
2.832e-03
2.897e-03
2.630e-03
2.563e-03
2.964e-03
3.031e-03
2.768e-03
2.699e-03
1.825e-03
1.890e-03
1.956e-03
1.679e-03
1.612e-03
1.546e-03
2.023e-03
2.090e-03
1.815e-03
1.747e-03
2.157e-03
2.225e-03
1.955e-03
1.885e-03
2.294e-03
2.363e-03
2.097e-03
2.026e-03
2.434e-03
2.505e-03
2.242e-03
2.169e-03
3.189e-03
3.250e-03
3.311e-03
3.290e-03
3.229e-03
3.168e-03
3.372e-03
3.433e-03
3.414e-03
3.352e-03
3.494e-03
3.555e-03
3.537e-03
3.476e-03
3.616e-03
3.677e-03
3.661e-03
3.599e-03
3.738e-03
3.800e-03
3.785e-03
3.723e-03
3.154e-03
3.216e-03
3.278e-03
3.274e-03
3.212e-03
3.150e-03
3.340e-03
3.403e-03
3.400e-03
3.337e-03
3.465e-03
3.528e-03
3.526e-03
3.463e-03
3.590e-03
3.653e-03
3.653e-03
3.590e-03
3.716e-03
3.779e-03
3.780e-03
3.716e-03
3.154e-03
3.217e-03
3.280e-03
3.291e-03
3.228e-03
3.164e-03
3.344e-03
3.407e-03
3.419e-03
3.355e-03
3.471e-03
3.534e-03
3.547e-03
3.483e-03
3.598e-03
3.662e-03
3.676e-03
3.612e-03
3.726e-03
3.790e-03
3.805e-03
3.741e-03
3.177e-03
3.241e-03
3.305e-03
3.321e-03
3.257e-03
3.192e-03
3.369e-03
3.434e-03
3.451e-03
3.386e-03
3.498e-03
3.563e-03
3.581e-03
3.516e-03
3.628e-03
3.693e-03
3.712e-03
3.647e-03
3.758e-03
3.823e-03
3.843e-03
3.778e-03
3.141e-03
3.197e-03
3.343e-03
3.398e-03
3.251e-03
3.453e-03
3.502e-03
3.447e-03
3.391e-03
3.304e-03
3.507e-03
3.359e-03
3.562e-03
3.612e-03
3.557e-03
3.414e-03
3.616e-03
3.470e-03
3.672e-03
3.723e-03
3.667e-03
3.526e-03
3.727e-03
3.584e-03
3.783e-03
3.835e-03
3.779e-03
3.643e-03
3.840e-03
3.701e-03
3.896e-03
3.946e-03
3.890e-03
3.396e-03
3.452e-03
3.508e-03
3.494e-03
3.438e-03
3.382e-03
3.564e-03
3.619e-03
3.607e-03
3.551e-03
3.675e-03
3.731e-03
3.720e-03
3.663e-03
3.787e-03
3.844e-03
3.834e-03
3.777e-03
3.900e-03
3.956e-03
3.948e-03
3.891e-03
3.359e-03
3.415e-03
3.472e-03
3.444e-03
3.387e-03
3.331e-03
3.528e-03
3.585e-03
3.559e-03
3.502e-03
3.643e-03
3.700e-03
3.676e-03
3.618e-03
3.758e-03
3.815e-03
3.792e-03
3.734e-03
3.873e-03
3.930e-03
3.909e-03
3.851e-03
3.301e-03
3.358e-03
3.416e-03
3.388e-03
3.329e-03
3.271e-03
3.474e-03
3.533e-03
3.506e-03
3.447e-03
3.591e-03
3.650e-03
3.625e-03
3.565e-03
3.709e-03
3.768e-03
3.743e-03
3.684e-03
3.827e-03
3.885e-03
3.862e-03
3.803e-03
3.242e-03
3.302e-03
3.361e-03
3.421e-03
3.481e-03
3.541e-03
3.601e-03
3.661e-03
3.720e-03
3.780e-03
3.839e-03
2.628e-03
2.686e-03
2.347e-03
2.406e-03
2.744e-03
2.466e-03
2.185e-03
2.124e-03
2.066e-03
2.803e-03
2.524e-03
2.862e-03
2.582e-03
2.301e-03
2.243e-03
2.920e-03
2.640e-03
2.979e-03
2.699e-03
2.417e-03
2.359e-03
3.038e-03
2.758e-03
3.098e-03
2.817e-03
2.536e-03
2.476e-03
3.157e-03
2.878e-03
2.598e-03
1.784e-03
1.843e-03
1.902e-03
1.619e-03
1.561e-03
1.503e-03
1.961e-03
2.019e-03
1.735e-03
1.677e-03
2.077e-03
2.135e-03
1.853e-03
1.794e-03
2.195e-03
2.256e-03
1.975e-03
1.914e-03
2.318e-03
2.039e-03
1.222e-03
1.278e-03
1.335e-03
1.053e-03
9.961e-04
9.406e-04
1.394e-03
1.452e-03
1.169e-03
1.110e-03
1.511e-03
1.572e-03
1.291e-03
1.229e-03
1.633e-03
1.695e-03
1.416e-03
1.353e-03
1.759e-03
1.481e-03
2.882e-03
2.524e-03
2.300e-03
2.825e-03
2.253e-03
2.080e-03
2.848e-03
2.366e-03
3.112e-03
3.036e-03
2.838e-03
2.686e-03
1.883e-03
1.600e-03
3.033e-03
2.771e-03
3.179e-03
2.518e-03
2.027e-03
2.964e-03
2.899e-03
2.454e-03
2.560e-03
2.311e-03
2.138e-03
1.990e-03
1.864e-03
1.758e-03
1.670e-03
1.693e-03
1.629e-03
1.943e-03
1.889e-03
1.575e-03
1.840e-03
2.105e-03
2.149e-03
2.192e-03
1.530e-03
1.803e-03
1.498e-03
1.774e-03
2.049e-03
2.077e-03
1.484e-03
1.766e-03
1.487e-03
1.767e-03
2.047e-03
2.048e-03
1.507e-03
1.791e-03
2.075e-03
2.442e-03
2.406e-03
2.370e-03
2.635e-03
2.663e-03
2.692e-03
2.347e-03
2.324e-03
2.599e-03
2.617e-03
2.325e-03
2.327e-03
2.607e-03
2.603e-03
2.354e-03
2.633e-03
2.942e-03
2.920e-03
2.899e-03
2.886e-03
2.874e-03
2.879e-03
2.888e-03
2.911e-03
1.762e-03
1.699e-03
1.833e-03
1.769e-03
1.714e-03
1.644e-03
1.904e-03
1.840e-03
1.976e-03
1.911e-03
1.855e-03
1.784e-03
2.048e-03
1.983e-03
2.121e-03
2.056e-03
2.000e-03
1.927e-03
2.195e-03
2.129e-03
2.268e-03
2.203e-03
2.147e-03
2.073e-03
2.342e-03
2.277e-03
2.417e-03
2.352e-03
2.295e-03
2.221e-03
1.598e-03
1.668e-03
1.636e-03
1.567e-03
1.738e-03
1.809e-03
1.776e-03
1.705e-03
1.881e-03
1.953e-03
1.919e-03
1.847e-03
2.026e-03
2.099e-03
2.065e-03
1.992e-03
2.173e-03
2.248e-03
2.213e-03
2.139e-03
1.552e-03
1.620e-03
1.622e-03
1.554e-03
1.690e-03
1.760e-03
1.761e-03
1.691e-03
1.831e-03
1.903e-03
1.903e-03
1.831e-03
1.975e-03
2.048e-03
2.047e-03
1.975e-03
2.121e-03
2.195e-03
2.193e-03
2.120e-03
1.574e-03
1.641e-03
1.710e-03
1.779e-03
1.849e-03
1.920e-03
1.991e-03
2.063e-03
2.136e-03
2.209e-03
1.666e-03
1.732e-03
1.801e-03
1.736e-03
1.799e-03
1.867e-03
1.934e-03
1.867e-03
1.935e-03
2.004e-03
2.070e-03
2.002e-03
2.074e-03
2.145e-03
2.209e-03
2.139e-03
2.216e-03
2.288e-03
2.350e-03
2.279e-03
1.823e-03
1.888e-03
1.992e-03
1.928e-03
1.953e-03
2.019e-03
2.121e-03
2.056e-03
2.086e-03
2.153e-03
2.253e-03
2.187e-03
2.221e-03
2.289e-03
2.387e-03
2.320e-03
2.358e-03
2.428e-03
2.524e-03
2.455e-03
2.053e-03
2.116e-03
2.260e-03
2.199e-03
2.179e-03
2.243e-03
2.385e-03
2.322e-03
2.308e-03
2.373e-03
2.512e-03
2.448e-03
2.438e-03
2.504e-03
2.641e-03
2.576e-03
2.571e-03
2.638e-03
2.773e-03
2.707e-03
2.372e-03
2.432e-03
2.634e-03
2.577e-03
2.492e-03
2.553e-03
2.751e-03
2.692e-03
2.614e-03
2.677e-03
2.871e-03
2.811e-03
2.740e-03
2.804e-03
2.996e-03
2.933e-03
2.868e-03
2.933e-03
3.123e-03
3.060e-03
2.835e-03
2.897e-03
2.952e-03
3.008e-03
3.065e-03
3.124e-03
3.184e-03
3.245e-03
3.301e-03
3.357e-03
2.314e-03
2.576e-03
2.837e-03
2.907e-03
2.647e-03
2.387e-03
3.098e-03
3.360e-03
3.426e-03
3.167e-03
3.621e-03
3.880e-03
3.941e-03
3.684e-03
2.461e-03
2.718e-03
2.976e-03
3.045e-03
2.789e-03
2.534e-03
3.233e-03
3.491e-03
3.555e-03
3.300e-03
3.747e-03
4.002e-03
4.062e-03
3.809e-03
2.608e-03
2.861e-03
3.114e-03
3.183e-03
2.933e-03
2.683e-03
3.367e-03
3.619e-03
3.683e-03
3.433e-03
3.871e-03
4.122e-03
4.182e-03
3.933e-03
2.758e-03
3.005e-03
3.252e-03
3.321e-03
3.077e-03
2.832e-03
3.500e-03
3.747e-03
3.811e-03
3.566e-03
3.995e-03
4.242e-03
4.301e-03
4.056e-03
2.908e-03
3.149e-03
3.391e-03
3.461e-03
3.222e-03
2.983e-03
3.633e-03
3.876e-03
3.940e-03
3.701e-03
4.118e-03
4.360e-03
4.419e-03
4.179e-03
3.046e-03
3.230e-03
2.876e-03
3.397e-03
3.145e-03
2.616e-03
3.506e-03
3.593e-03
3.527e-03
3.445e-03
3.363e-03
3.287e-03
3.216e-03
3.075e-03
2.797e-03
2.655e-03
2.599e-03
2.547e-03
2.799e-03
2.846e-03
2.892e-03
2.507e-03
2.474e-03
2.735e-03
2.767e-03
2.462e-03
2.459e-03
2.724e-03
2.730e-03
2.477e-03
2.746e-03
3.130e-03
3.090e-03
3.050e-03
3.302e-03
3.335e-03
3.367e-03
3.023e-03
2.996e-03
3.258e-03
3.280e-03
2.993e-03
2.989e-03
3.255e-03
3.256e-03
3.010e-03
3.274e-03
3.605e-03
3.579e-03
3.554e-03
3.535e-03
3.519e-03
3.517e-03
3.520e-03
3.537e-03
2.595e-03
2.653e-03
2.712e-03
2.686e-03
2.627e-03
2.569e-03
2.771e-03
2.830e-03
2.804e-03
2.745e-03
2.889e-03
2.949e-03
2.924e-03
2.864e-03
3.008e-03
3.068e-03
3.045e-03
2.985e-03
3.128e-03
3.106e-03
2.550e-03
2.608e-03
2.667e-03
2.658e-03
2.599e-03
2.540e-03
2.727e-03
2.787e-03
2.779e-03
2.718e-03
2.847e-03
2.908e-03
2.901e-03
2.840e-03
2.969e-03
3.031e-03
3.025e-03
2.963e-03
3.092e-03
3.087e-03
2.539e-03
2.599e-03
2.659e-03
2.665e-03
2.605e-03
2.544e-03
2.720e-03
2.781e-03
2.788e-03
2.726e-03
2.842e-03
2.904e-03
2.912e-03
2.850e-03
2.966e-03
3.029e-03
3.038e-03
2.975e-03
3.091e-03
3.101e-03
2.552e-03
2.613e-03
2.674e-03
2.685e-03
2.624e-03
2.563e-03
2.736e-03
2.798e-03
2.810e-03
2.747e-03
2.860e-03
2.923e-03
2.936e-03
2.873e-03
2.986e-03
3.049e-03
3.064e-03
3.000e-03
3.113e-03
3.128e-03
3.008e-03
3.075e-03
2.827e-03
2.759e-03
3.140e-03
3.205e-03
2.960e-03
2.894e-03
3.271e-03
3.337e-03
3.094e-03
3.027e-03
3.404e-03
3.470e-03
3.230e-03
3.162e-03
3.538e-03
3.299e-03
2.510e-03
2.579e-03
2.331e-03
2.261e-03
2.647e-03
2.715e-03
2.469e-03
2.400e-03
2.783e-03
2.851e-03
2.608e-03
2.538e-03
2.920e-03
2.989e-03
2.749e-03
2.678e-03
3.059e-03
2.820e-03
2.012e-03
2.082e-03
2.152e-03
2.223e-03
2.293e-03
2.365e-03
2.437e-03
2.509e-03
2.581e-03
3.210e-03
3.275e-03
3.340e-03
3.362e-03
3.296e-03
3.231e-03
3.405e-03
3.471e-03
3.494e-03
3.428e-03
3.536e-03
3.602e-03
3.627e-03
3.561e-03
3.668e-03
3.734e-03
3.760e-03
3.693e-03
3.800e-03
3.866e-03
3.892e-03
3.826e-03
3.256e-03
3.321e-03
3.388e-03
3.418e-03
3.351e-03
3.284e-03
3.455e-03
3.522e-03
3.553e-03
3.486e-03
3.589e-03
3.655e-03
3.687e-03
3.620e-03
3.722e-03
3.789e-03
3.821e-03
3.754e-03
3.855e-03
3.921e-03
3.954e-03
3.888e-03
3.317e-03
3.384e-03
3.452e-03
3.490e-03
3.422e-03
3.354e-03
3.520e-03
3.587e-03
3.625e-03
3.558e-03
3.655e-03
3.723e-03
3.761e-03
3.693e-03
3.790e-03
3.857e-03
3.897e-03
3.829e-03
3.924e-03
3.991e-03
4.032e-03
3.964e-03
3.395e-03
3.463e-03
3.531e-03
3.577e-03
3.509e-03
3.441e-03
3.599e-03
3.667e-03
3.714e-03
3.645e-03
3.736e-03
3.804e-03
3.851e-03
3.782e-03
3.872e-03
3.941e-03
3.989e-03
3.920e-03
4.009e-03
4.077e-03
4.126e-03
4.058e-03
3.861e-03
3.922e-03
3.910e-03
3.848e-03
3.984e-03
4.045e-03
4.034e-03
3.972e-03
4.106e-03
4.167e-03
4.157e-03
4.095e-03
4.227e-03
4.287e-03
4.279e-03
4.218e-03
4.347e-03
4.407e-03
4.401e-03
4.340e-03
3.841e-03
3.904e-03
3.907e-03
3.843e-03
3.967e-03
4.029e-03
4.033e-03
3.970e-03
4.092e-03
4.154e-03
4.159e-03
4.096e-03
4.216e-03
4.278e-03
4.284e-03
4.222e-03
4.340e-03
4.402e-03
4.409e-03
4.347e-03
3.854e-03
3.918e-03
3.934e-03
3.870e-03
3.982e-03
4.045e-03
4.062e-03
3.998e-03
4.109e-03
4.172e-03
4.190e-03
4.126e-03
4.236e-03
4.299e-03
4.318e-03
4.254e-03
4.362e-03
4.425e-03
4.445e-03
4.382e-03
3.888e-03
3.952e-03
3.973e-03
3.908e-03
4.017e-03
4.081e-03
4.103e-03
4.038e-03
4.146e-03
4.210e-03
4.233e-03
4.168e-03
4.274e-03
4.339e-03
4.363e-03
4.298e-03
4.403e-03
4.468e-03
4.493e-03
4.428e-03
2.594e-03
2.649e-03
2.795e-03
2.850e-03
2.700e-03
2.903e-03
2.948e-03
2.894e-03
2.839e-03
2.752e-03
2.956e-03
2.804e-03
3.010e-03
3.057e-03
3.003e-03
2.857e-03
3.064e-03
2.912e-03
3.119e-03
3.167e-03
3.112e-03
2.968e-03
3.174e-03
3.025e-03
3.230e-03
3.279e-03
3.223e-03
3.083e-03
3.287e-03
3.335e-03
2.840e-03
2.894e-03
2.949e-03
2.931e-03
2.876e-03
2.821e-03
3.004e-03
3.059e-03
3.041e-03
2.986e-03
3.114e-03
3.170e-03
3.153e-03
3.097e-03
3.226e-03
3.283e-03
3.267e-03
3.210e-03
3.340e-03
3.325e-03
2.793e-03
2.848e-03
2.903e-03
2.870e-03
2.815e-03
2.760e-03
2.958e-03
3.014e-03
2.983e-03
2.926e-03
3.070e-03
3.127e-03
3.097e-03
3.040e-03
3.185e-03
3.243e-03
3.214e-03
3.155e-03
3.301e-03
3.273e-03
2.726e-03
2.781e-03
2.837e-03
2.804e-03
2.747e-03
2.691e-03
2.893e-03
2.951e-03
2.919e-03
2.861e-03
3.008e-03
3.066e-03
3.036e-03
2.977e-03
3.125e-03
3.183e-03
3.153e-03
3.094e-03
3.242e-03
3.212e-03
2.659e-03
2.715e-03
2.773e-03
2.831e-03
2.890e-03
2.948e-03
3.007e-03
3.066e-03
3.125e-03
3.184e-03
3.758e-03
3.951e-03
3.812e-03
4.005e-03
4.056e-03
4.001e-03
3.866e-03
4.059e-03
3.921e-03
4.113e-03
4.166e-03
4.111e-03
3.976e-03
4.167e-03
4.031e-03
4.222e-03
4.275e-03
4.220e-03
4.088e-03
4.276e-03
4.144e-03
4.330e-03
4.383e-03
4.329e-03
4.201e-03
4.385e-03
4.259e-03
4.440e-03
4.491e-03
4.437e-03
4.012e-03
4.067e-03
4.060e-03
4.004e-03
4.123e-03
4.178e-03
4.172e-03
4.116e-03
4.233e-03
4.288e-03
4.283e-03
4.227e-03
4.343e-03
4.397e-03
4.394e-03
4.339e-03
4.452e-03
4.505e-03
4.504e-03
4.449e-03
3.987e-03
4.044e-03
4.023e-03
3.966e-03
4.100e-03
4.157e-03
4.138e-03
4.081e-03
4.213e-03
4.270e-03
4.253e-03
4.195e-03
4.326e-03
4.382e-03
4.366e-03
4.310e-03
4.438e-03
4.493e-03
4.479e-03
4.423e-03
3.943e-03
4.001e-03
3.979e-03
3.920e-03
4.059e-03
4.118e-03
4.098e-03
4.039e-03
4.176e-03
4.234e-03
4.215e-03
4.157e-03
4.292e-03
4.349e-03
4.332e-03
4.273e-03
4.406e-03
4.463e-03
4.447e-03
4.389e-03
3.899e-03
3.959e-03
4.019e-03
4.079e-03
4.138e-03
4.198e-03
4.257e-03
4.315e-03
4.374e-03
4.432e-03
2.071e-03
2.125e-03
1.802e-03
1.855e-03
2.180e-03
1.911e-03
1.639e-03
1.584e-03
1.532e-03
2.235e-03
1.964e-03
2.290e-03
2.018e-03
1.742e-03
1.691e-03
2.346e-03
2.071e-03
2.402e-03
2.124e-03
1.846e-03
1.794e-03
2.458e-03
2.179e-03
2.515e-03
2.234e-03
1.953e-03
1.899e-03
2.572e-03
2.291e-03
2.010e-03
1.263e-03
1.313e-03
1.365e-03
1.090e-03
1.042e-03
9.942e-04
1.415e-03
1.465e-03
1.188e-03
1.139e-03
1.516e-03
1.566e-03
1.287e-03
1.237e-03
1.619e-03
1.672e-03
1.392e-03
1.339e-03
1.728e-03
1.447e-03
7.251e-04
7.702e-04
8.155e-04
5.418e-04
4.983e-04
4.559e-04
8.626e-04
9.101e-04
6.333e-04
5.869e-04
9.586e-04
1.008e-03
7.301e-04
6.810e-04
1.059e-03
1.112e-03
8.324e-04
7.806e-04
1.166e-03
8.857e-04
1.804e-03
2.003e-03
1.624e-03
2.191e-03
1.930e-03
1.349e-03
9.986e-04
2.300e-03
2.467e-03
2.216e-03
2.389e-03
1.956e-03
2.291e-03
2.194e-03
2.103e-03
1.562e-03
1.408e-03
1.741e-03
2.018e-03
1.842e-03
1.277e-03
1.166e-03
1.074e-03
1.548e-03
1.057e-03
9.973e-04
1.308e-03
1.259e-03
9.470e-04
1.213e-03
1.480e-03
1.519e-03
1.559e-03
9.061e-04
1.181e-03
8.781e-04
1.155e-03
1.432e-03
1.456e-03
8.672e-04
1.151e-03
8.736e-04
1.156e-03
1.438e-03
1.435e-03
8.978e-04
1.184e-03
1.470e-03
1.809e-03
1.778e-03
1.746e-03
2.012e-03
2.036e-03
2.060e-03
1.727e-03
1.709e-03
1.986e-03
1.999e-03
1.715e-03
1.721e-03
2.003e-03
1.995e-03
1.752e-03
2.035e-03
2.311e-03
2.294e-03
2.278e-03
2.269e-03
2.263e-03
2.272e-03
2.286e-03
2.315e-03
1.116e-03
1.056e-03
1.177e-03
1.116e-03
1.064e-03
1.005e-03
1.238e-03
1.177e-03
1.300e-03
1.239e-03
1.186e-03
1.125e-03
1.363e-03
1.302e-03
1.428e-03
1.365e-03
1.312e-03
1.249e-03
1.493e-03
1.430e-03
1.558e-03
1.496e-03
1.442e-03
1.376e-03
1.625e-03
1.562e-03
1.508e-03
9.636e-04
1.022e-03
9.935e-04
9.353e-04
1.082e-03
1.143e-03
1.113e-03
1.053e-03
1.205e-03
1.268e-03
1.238e-03
1.175e-03
1.332e-03
1.397e-03
1.366e-03
1.302e-03
1.463e-03
1.432e-03
9.240e-04
9.818e-04
9.873e-04
9.300e-04
1.041e-03
1.101e-03
1.106e-03
1.046e-03
1.162e-03
1.225e-03
1.229e-03
1.167e-03
1.288e-03
1.352e-03
1.356e-03
1.292e-03
1.418e-03
1.421e-03
9.536e-04
1.010e-03
1.069e-03
1.128e-03
1.189e-03
1.250e-03
1.313e-03
1.377e-03
1.441e-03
1.054e-03
1.110e-03
1.185e-03
1.129e-03
1.168e-03
1.226e-03
1.300e-03
1.242e-03
1.286e-03
1.346e-03
1.419e-03
1.359e-03
1.408e-03
1.471e-03
1.542e-03
1.480e-03
1.535e-03
1.605e-03
1.222e-03
1.278e-03
1.388e-03
1.333e-03
1.334e-03
1.392e-03
1.502e-03
1.445e-03
1.451e-03
1.510e-03
1.619e-03
1.560e-03
1.570e-03
1.631e-03
1.738e-03
1.678e-03
1.694e-03
1.800e-03
1.464e-03
1.519e-03
1.671e-03
1.616e-03
1.575e-03
1.632e-03
1.782e-03
1.726e-03
1.689e-03
1.747e-03
1.897e-03
1.839e-03
1.806e-03
1.866e-03
2.015e-03
1.956e-03
1.927e-03
2.075e-03
1.796e-03
1.850e-03
2.062e-03
2.009e-03
1.904e-03
1.960e-03
2.169e-03
2.115e-03
2.016e-03
2.074e-03
2.281e-03
2.224e-03
2.132e-03
2.191e-03
2.398e-03
2.339e-03
2.251e-03
2.458e-03
2.276e-03
2.334e-03
2.386e-03
2.439e-03
2.493e-03
2.548e-03
2.606e-03
2.664e-03
2.718e-03
2.373e-03
2.436e-03
2.186e-03
2.122e-03
2.498e-03
2.559e-03
2.309e-03
2.247e-03
2.622e-03
2.685e-03
2.433e-03
2.371e-03
2.748e-03
2.812e-03
2.561e-03
2.497e-03
2.877e-03
2.626e-03
1.871e-03
1.934e-03
1.682e-03
1.620e-03
1.995e-03
2.057e-03
1.805e-03
1.743e-03
2.119e-03
2.182e-03
1.931e-03
1.868e-03
2.246e-03
2.310e-03
2.060e-03
1.995e-03
2.376e-03
2.125e-03
1.368e-03
1.429e-03
1.491e-03
1.553e-03
1.616e-03
1.680e-03
1.744e-03
1.809e-03
1.875e-03
2.521e-03
2.389e-03
2.674e-03
2.559e-03
2.266e-03
2.447e-03
2.628e-03
2.728e-03
2.827e-03
2.150e-03
2.346e-03
2.042e-03
2.249e-03
2.456e-03
2.542e-03
1.942e-03
2.163e-03
1.850e-03
2.080e-03
2.310e-03
2.383e-03
1.767e-03
2.009e-03
2.251e-03
2.981e-03
2.895e-03
2.810e-03
2.991e-03
3.063e-03
3.134e-03
2.736e-03
2.663e-03
2.870e-03
2.931e-03
2.602e-03
2.540e-03
2.770e-03
2.820e-03
2.491e-03
2.731e-03
3.287e-03
3.229e-03
3.173e-03
3.124e-03
3.077e-03
3.038e-03
3.001e-03
2.971e-03
2.592e-03
2.461e-03
2.665e-03
2.533e-03
2.409e-03
2.337e-03
2.737e-03
2.606e-03
2.810e-03
2.678e-03
2.554e-03
2.481e-03
2.883e-03
2.751e-03
2.956e-03
2.825e-03
2.700e-03
2.627e-03
3.029e-03
2.898e-03
3.103e-03
2.971e-03
2.847e-03
2.774e-03
3.176e-03
3.045e-03
3.250e-03
3.119e-03
2.995e-03
2.921e-03
2.221e-03
2.292e-03
2.184e-03
2.112e-03
2.365e-03
2.437e-03
2.329e-03
2.256e-03
2.510e-03
2.584e-03
2.475e-03
2.402e-03
2.657e-03
2.731e-03
2.622e-03
2.548e-03
2.805e-03
2.879e-03
2.771e-03
2.696e-03
2.012e-03
2.084e-03
1.992e-03
1.921e-03
2.156e-03
2.228e-03
2.136e-03
2.063e-03
2.301e-03
2.374e-03
2.281e-03
2.208e-03
2.447e-03
2.521e-03
2.429e-03
2.355e-03
2.596e-03
2.670e-03
2.578e-03
2.503e-03
1.837e-03
1.908e-03
1.980e-03
2.052e-03
2.124e-03
2.197e-03
2.270e-03
2.344e-03
2.418e-03
2.493e-03
2.493e-03
2.428e-03
2.570e-03
2.504e-03
2.447e-03
2.371e-03
2.646e-03
2.580e-03
2.723e-03
2.657e-03
2.599e-03
2.523e-03
2.800e-03
2.734e-03
2.877e-03
2.811e-03
2.753e-03
2.676e-03
2.954e-03
2.888e-03
3.032e-03
2.966e-03
2.908e-03
2.831e-03
3.109e-03
3.043e-03
3.186e-03
3.120e-03
3.063e-03
2.985e-03
2.323e-03
2.398e-03
2.363e-03
2.288e-03
2.474e-03
2.551e-03
2.515e-03
2.439e-03
2.627e-03
2.704e-03
2.668e-03
2.592e-03
2.781e-03
2.859e-03
2.822e-03
2.745e-03
2.936e-03
3.014e-03
2.977e-03
2.899e-03
2.270e-03
2.345e-03
2.342e-03
2.268e-03
2.420e-03
2.496e-03
2.492e-03
2.417e-03
2.572e-03
2.648e-03
2.643e-03
2.567e-03
2.724e-03
2.801e-03
2.796e-03
2.719e-03
2.878e-03
2.955e-03
2.948e-03
2.872e-03
2.282e-03
2.356e-03
2.430e-03
2.505e-03
2.579e-03
2.655e-03
2.730e-03
2.806e-03
2.882e-03
2.957e-03
2.360e-03
2.432e-03
2.492e-03
2.421e-03
2.505e-03
2.577e-03
2.636e-03
2.564e-03
2.650e-03
2.724e-03
2.780e-03
2.708e-03
2.798e-03
2.872e-03
2.925e-03
2.853e-03
2.946e-03
3.020e-03
3.072e-03
2.998e-03
2.499e-03
2.569e-03
2.662e-03
2.593e-03
2.639e-03
2.710e-03
2.800e-03
2.730e-03
2.780e-03
2.851e-03
2.939e-03
2.869e-03
2.923e-03
2.994e-03
3.079e-03
3.009e-03
3.066e-03
3.138e-03
3.220e-03
3.149e-03
2.706e-03
2.773e-03
2.903e-03
2.839e-03
2.840e-03
2.907e-03
3.034e-03
2.969e-03
2.975e-03
3.044e-03
3.167e-03
3.100e-03
3.112e-03
3.181e-03
3.301e-03
3.234e-03
3.250e-03
3.319e-03
3.436e-03
3.369e-03
2.996e-03
3.059e-03
3.244e-03
3.184e-03
3.122e-03
3.185e-03
3.365e-03
3.304e-03
3.249e-03
3.314e-03
3.488e-03
3.426e-03
3.379e-03
3.445e-03
3.615e-03
3.551e-03
3.511e-03
3.576e-03
3.744e-03
3.679e-03
3.421e-03
3.484e-03
3.541e-03
3.599e-03
3.657e-03
3.716e-03
3.776e-03
3.837e-03
3.894e-03
3.951e-03
3.202e-03
3.191e-03
3.433e-03
3.447e-03
3.199e-03
3.215e-03
3.454e-03
3.443e-03
3.251e-03
3.293e-03
3.524e-03
3.489e-03
3.347e-03
3.404e-03
3.621e-03
3.572e-03
3.688e-03
3.675e-03
3.917e-03
3.928e-03
3.684e-03
3.693e-03
3.932e-03
3.924e-03
3.723e-03
3.754e-03
3.984e-03
3.958e-03
3.797e-03
3.839e-03
4.057e-03
4.021e-03
4.168e-03
4.159e-03
4.163e-03
4.171e-03
4.192e-03
4.215e-03
4.244e-03
4.275e-03
3.207e-03
3.377e-03
3.770e-03
4.236e-03
4.098e-03
4.167e-03
4.111e-03
4.041e-03
3.972e-03
3.907e-03
3.844e-03
2.729e-03
2.965e-03
3.039e-03
2.804e-03
3.201e-03
3.437e-03
3.507e-03
3.273e-03
3.673e-03
3.740e-03
2.879e-03
3.111e-03
3.184e-03
2.954e-03
3.343e-03
3.575e-03
3.643e-03
3.414e-03
3.807e-03
3.873e-03
3.029e-03
3.257e-03
3.329e-03
3.104e-03
3.484e-03
3.712e-03
3.780e-03
3.555e-03
3.940e-03
4.006e-03
3.178e-03
3.402e-03
3.475e-03
3.254e-03
3.626e-03
3.849e-03
3.918e-03
3.696e-03
4.073e-03
4.140e-03
3.329e-03
3.548e-03
3.768e-03
3.987e-03
4.207e-03
3.396e-03
3.280e-03
3.168e-03
3.341e-03
3.441e-03
3.542e-03
3.066e-03
2.968e-03
3.165e-03
3.253e-03
2.880e-03
2.797e-03
3.016e-03
3.090e-03
2.724e-03
2.954e-03
3.688e-03
3.601e-03
3.514e-03
3.687e-03
3.760e-03
3.834e-03
3.438e-03
3.363e-03
3.560e-03
3.623e-03
3.299e-03
3.234e-03
3.454e-03
3.507e-03
3.182e-03
3.410e-03
3.980e-03
3.919e-03
3.859e-03
3.807e-03
3.757e-03
3.714e-03
3.673e-03
3.638e-03
2.035e-03
2.089e-03
2.144e-03
2.114e-03
2.059e-03
2.005e-03
2.199e-03
2.254e-03
2.224e-03
2.169e-03