# vtk DataFile Version 3.0
vtk output
ASCII
DATASET UNSTRUCTURED_GRID
POINTS 8829 double
4.002985e+00 5.165041e-01 -6.024607e+00
4.047874e+00 5.234466e-01 -6.110672e+00
4.002985e+00 5.582461e-01 -6.024607e+00
4.047874e+00 5.648035e-01 -6.110672e+00
4.092764e+00 5.303892e-01 -6.196738e+00
4.092764e+00 5.713609e-01 -6.196738e+00
4.092764e+00 6.123327e-01 -6.196738e+00
4.047874e+00 6.061604e-01 -6.110672e+00
4.002985e+00 5.999881e-01 -6.024607e+00
4.137654e+00 5.373319e-01 -6.282804e+00
4.137655e+00 5.779188e-01 -6.282804e+00
4.182545e+00 5.442747e-01 -6.368870e+00
4.182545e+00 5.844766e-01 -6.368870e+00
4.182545e+00 6.246786e-01 -6.368870e+00
4.137655e+00 6.185057e-01 -6.282804e+00
4.227435e+00 5.512175e-01 -6.454936e+00
4.227435e+00 5.910349e-01 -6.454936e+00
4.272325e+00 5.581604e-01 -6.541002e+00
4.272325e+00 5.975932e-01 -6.541002e+00
4.272325e+00 6.370260e-01 -6.541002e+00
4.227435e+00 6.308523e-01 -6.454936e+00
4.317214e+00 5.651034e-01 -6.627068e+00
4.317214e+00 6.041519e-01 -6.627068e+00
4.362104e+00 5.720464e-01 -6.713133e+00
4.362104e+00 6.107106e-01 -6.713133e+00
4.362104e+00 6.493748e-01 -6.713133e+00
4.317214e+00 6.432004e-01 -6.627068e+00
4.406994e+00 5.789895e-01 -6.799199e+00
4.406994e+00 6.172698e-01 -6.799199e+00
4.451885e+00 5.859327e-01 -6.885265e+00
4.451885e+00 6.238290e-01 -6.885265e+00
4.451885e+00 6.617253e-01 -6.885265e+00
4.406994e+00 6.555501e-01 -6.799199e+00
4.002985e+00 6.417301e-01 -6.024607e+00
4.047874e+00 6.475173e-01 -6.110672e+00
4.092764e+00 6.533044e-01 -6.196739e+00
4.092765e+00 6.942761e-01 -6.196739e+00
4.047874e+00 6.888741e-01 -6.110672e+00
4.002985e+00 6.834721e-01 -6.024607e+00
4.137655e+00 6.590925e-01 -6.282804e+00
4.182545e+00 6.648806e-01 -6.368870e+00
4.182545e+00 7.050825e-01 -6.368870e+00
4.137655e+00 6.996793e-01 -6.282804e+00
4.227435e+00 6.706697e-01 -6.454936e+00
4.272325e+00 6.764588e-01 -6.541002e+00
4.272325e+00 7.158915e-01 -6.541002e+00
4.227435e+00 7.104870e-01 -6.454936e+00
4.317214e+00 6.822489e-01 -6.627068e+00
4.362104e+00 6.880391e-01 -6.713133e+00
4.362105e+00 7.267033e-01 -6.713133e+00
4.317214e+00 7.212974e-01 -6.627068e+00
4.406995e+00 6.938303e-01 -6.799199e+00
4.451885e+00 6.996216e-01 -6.885265e+00
4.451885e+00 7.375179e-01 -6.885265e+00
4.406995e+00 7.321106e-01 -6.799199e+00
4.002985e+00 7.252141e-01 -6.024607e+00
4.047874e+00 7.302307e-01 -6.110672e+00
4.092765e+00 7.352478e-01 -6.196739e+00
4.092765e+00 7.762195e-01 -6.196739e+00
4.047874e+00 7.715874e-01 -6.110672e+00
4.002985e+00 7.669561e-01 -6.024607e+00
4.137655e+00 7.402659e-01 -6.282804e+00
4.182545e+00 7.452845e-01 -6.368870e+00
4.182545e+00 7.854865e-01 -6.368870e+00
4.137655e+00 7.808526e-01 -6.282804e+00
4.227435e+00 7.503042e-01 -6.454936e+00
4.272325e+00 7.553243e-01 -6.541002e+00
4.272325e+00 7.947571e-01 -6.541002e+00
4.227435e+00 7.901213e-01 -6.454937e+00
4.317214e+00 7.603456e-01 -6.627068e+00
4.362105e+00 7.653675e-01 -6.713133e+00
4.362105e+00 8.040317e-01 -6.713133e+00
4.317215e+00 7.993939e-01 -6.627068e+00
4.406995e+00 7.703906e-01 -6.799199e+00
4.451885e+00 7.754142e-01 -6.885265e+00
4.451885e+00 8.133105e-01 -6.885265e+00
4.406995e+00 8.086706e-01 -6.799199e+00
4.068475e+00 5.207109e-01 -6.024607e+00
4.112771e+00 5.275297e-01 -6.110661e+00
4.157066e+00 5.343484e-01 -6.196714e+00
4.221420e+00 5.373624e-01 -6.196738e+00
4.177721e+00 5.306572e-01 -6.110672e+00
4.134021e+00 5.239522e-01 -6.024607e+00
4.201362e+00 5.411679e-01 -6.282780e+00
4.245657e+00 5.479874e-01 -6.368846e+00
4.308818e+00 5.507729e-01 -6.368870e+00
4.265119e+00 5.440676e-01 -6.282804e+00
4.289953e+00 5.548071e-01 -6.454911e+00
4.334249e+00 5.616268e-01 -6.540977e+00
4.396217e+00 5.641838e-01 -6.541002e+00
4.352518e+00 5.574783e-01 -6.454936e+00
4.378544e+00 5.684466e-01 -6.627043e+00
4.422840e+00 5.752665e-01 -6.713109e+00
4.483615e+00 5.775952e-01 -6.713133e+00
4.439916e+00 5.708895e-01 -6.627068e+00
4.467135e+00 5.820872e-01 -6.799187e+00
4.511431e+00 5.889080e-01 -6.885265e+00
4.571014e+00 5.910070e-01 -6.885265e+00
4.527315e+00 5.843011e-01 -6.799199e+00
4.199613e+00 5.260554e-01 -6.024607e+00
4.242714e+00 5.326554e-01 -6.110652e+00
4.285816e+00 5.392554e-01 -6.196697e+00
4.350236e+00 5.399122e-01 -6.196738e+00
4.307734e+00 5.334027e-01 -6.110672e+00
4.265233e+00 5.268934e-01 -6.024607e+00
4.328917e+00 5.458568e-01 -6.282763e+00
4.372018e+00 5.524584e-01 -6.368829e+00
4.435238e+00 5.529314e-01 -6.368870e+00
4.392737e+00 5.464217e-01 -6.282804e+00
4.415119e+00 5.590601e-01 -6.454895e+00
4.458220e+00 5.656619e-01 -6.540960e+00
4.520241e+00 5.659511e-01 -6.541002e+00
4.477739e+00 5.594411e-01 -6.454936e+00
4.501322e+00 5.722638e-01 -6.627026e+00
4.544423e+00 5.788659e-01 -6.713092e+00
4.605243e+00 5.789714e-01 -6.713133e+00
4.562742e+00 5.724612e-01 -6.627068e+00
4.587524e+00 5.854695e-01 -6.799178e+00
4.630624e+00 5.920734e-01 -6.885265e+00
4.690244e+00 5.919923e-01 -6.885265e+00
4.647744e+00 5.854818e-01 -6.799199e+00
4.330856e+00 5.263271e-01 -6.024607e+00
4.372756e+00 5.327559e-01 -6.110657e+00
4.414655e+00 5.391848e-01 -6.196707e+00
4.479061e+00 5.377069e-01 -6.196738e+00
4.437765e+00 5.313492e-01 -6.110672e+00
4.396468e+00 5.249918e-01 -6.024607e+00
4.456554e+00 5.456152e-01 -6.282773e+00
4.498454e+00 5.520457e-01 -6.368839e+00
4.561655e+00 5.504228e-01 -6.368870e+00
4.520358e+00 5.440648e-01 -6.282804e+00
4.540353e+00 5.584764e-01 -6.454905e+00
4.582253e+00 5.649073e-01 -6.540970e+00
4.644248e+00 5.631393e-01 -6.541002e+00
4.602951e+00 5.567809e-01 -6.454936e+00
4.624152e+00 5.713382e-01 -6.627036e+00
4.666051e+00 5.777694e-01 -6.713102e+00
4.726841e+00 5.758564e-01 -6.713133e+00
4.685544e+00 5.694978e-01 -6.627068e+00
4.707951e+00 5.842021e-01 -6.799183e+00
4.749849e+00 5.906351e-01 -6.885265e+00
4.809434e+00 5.885744e-01 -6.885265e+00
4.768138e+00 5.822153e-01 -6.799199e+00
4.462072e+00 5.232940e-01 -6.024607e+00
4.502766e+00 5.295814e-01 -6.110663e+00
4.543459e+00 5.358690e-01 -6.196721e+00
4.607844e+00 5.336239e-01 -6.196738e+00
4.567754e+00 5.274009e-01 -6.110672e+00
4.527664e+00 5.211780e-01 -6.024607e+00
4.584153e+00 5.421575e-01 -6.282786e+00
4.624846e+00 5.484463e-01 -6.368852e+00
4.688024e+00 5.460706e-01 -6.368870e+00
4.647934e+00 5.398471e-01 -6.282804e+00
4.665540e+00 5.547352e-01 -6.454918e+00
4.706233e+00 5.610242e-01 -6.540984e+00
4.768204e+00 5.585180e-01 -6.541002e+00
4.728114e+00 5.522941e-01 -6.454936e+00
4.746927e+00 5.673135e-01 -6.627050e+00
4.787620e+00 5.736030e-01 -6.713116e+00
4.848384e+00 5.709662e-01 -6.713133e+00
4.808294e+00 5.647420e-01 -6.627068e+00
4.828314e+00 5.798935e-01 -6.799190e+00
4.869007e+00 5.861841e-01 -6.885265e+00
4.928564e+00 5.834154e-01 -6.885265e+00
4.888474e+00 5.771907e-01 -6.799199e+00
3.478305e+00 5.270797e-01 -6.024607e+00
3.527995e+00 5.346094e-01 -6.110672e+00
3.521504e+00 4.969710e-01 -6.024607e+00
3.570877e+00 5.050141e-01 -6.112033e+00
3.577685e+00 5.421391e-01 -6.196738e+00
3.620252e+00 5.130613e-01 -6.199457e+00
3.671209e+00 5.052652e-01 -6.196738e+00
3.622438e+00 4.975204e-01 -6.110672e+00
3.573667e+00 4.897757e-01 -6.024607e+00
3.627375e+00 5.496688e-01 -6.282804e+00
3.669508e+00 5.208065e-01 -6.285505e+00
3.677065e+00 5.571986e-01 -6.368870e+00
3.718765e+00 5.285516e-01 -6.371553e+00
3.768752e+00 5.207547e-01 -6.368870e+00
3.719980e+00 5.130099e-01 -6.282804e+00
3.726755e+00 5.647283e-01 -6.454936e+00
3.768021e+00 5.362968e-01 -6.457602e+00
3.776445e+00 5.722580e-01 -6.541002e+00
3.817278e+00 5.440421e-01 -6.543650e+00
3.866294e+00 5.362443e-01 -6.541002e+00
3.817523e+00 5.284995e-01 -6.454936e+00
3.826135e+00 5.797877e-01 -6.627068e+00
3.866534e+00 5.517873e-01 -6.629698e+00
3.875825e+00 5.873174e-01 -6.713133e+00
3.915791e+00 5.595325e-01 -6.715746e+00
3.963837e+00 5.517339e-01 -6.713133e+00
3.915066e+00 5.439891e-01 -6.627068e+00
3.925515e+00 5.948471e-01 -6.799199e+00
3.964930e+00 5.669888e-01 -6.800505e+00
3.975205e+00 6.023768e-01 -6.885265e+00
4.014069e+00 5.744463e-01 -6.885265e+00
4.061379e+00 5.672235e-01 -6.885265e+00
4.012608e+00 5.594787e-01 -6.799199e+00
3.627452e+00 4.889563e-01 -6.024607e+00
3.675732e+00 4.966428e-01 -6.110730e+00
3.724011e+00 5.043293e-01 -6.196852e+00
3.776788e+00 5.062163e-01 -6.196738e+00
3.728996e+00 4.986234e-01 -6.110672e+00
3.681204e+00 4.910306e-01 -6.024607e+00
3.772291e+00 5.120113e-01 -6.282918e+00
3.820570e+00 5.196934e-01 -6.368984e+00
3.872371e+00 5.214021e-01 -6.368870e+00
3.824579e+00 5.138092e-01 -6.282804e+00
3.868850e+00 5.273755e-01 -6.455050e+00
3.917130e+00 5.350575e-01 -6.541116e+00
3.967956e+00 5.365881e-01 -6.541002e+00
3.920163e+00 5.289951e-01 -6.454936e+00
3.965409e+00 5.427397e-01 -6.627182e+00
4.013689e+00 5.504218e-01 -6.713247e+00
4.063540e+00 5.517741e-01 -6.713133e+00
4.015748e+00 5.441811e-01 -6.627068e+00
4.061968e+00 5.580990e-01 -6.799256e+00
4.110248e+00 5.657762e-01 -6.885265e+00
4.159123e+00 5.669603e-01 -6.885265e+00
4.111331e+00 5.593672e-01 -6.799199e+00
3.734885e+00 4.945754e-01 -6.024607e+00
3.782192e+00 5.020664e-01 -6.110681e+00
3.829499e+00 5.095574e-01 -6.196755e+00
3.882160e+00 5.136293e-01 -6.196738e+00
3.835337e+00 5.062476e-01 -6.110672e+00
3.788513e+00 4.988658e-01 -6.024607e+00
3.876806e+00 5.170481e-01 -6.282822e+00
3.924114e+00 5.245388e-01 -6.368887e+00
3.975807e+00 5.283929e-01 -6.368870e+00
3.928983e+00 5.210111e-01 -6.282804e+00
3.971420e+00 5.320296e-01 -6.454954e+00
4.018727e+00 5.395203e-01 -6.541019e+00
4.069454e+00 5.431566e-01 -6.541002e+00
4.022630e+00 5.357747e-01 -6.454936e+00
4.066034e+00 5.470111e-01 -6.627085e+00
4.113341e+00 5.545020e-01 -6.713151e+00
4.163100e+00 5.579205e-01 -6.713133e+00
4.116277e+00 5.505385e-01 -6.627068e+00
4.160648e+00 5.619924e-01 -6.799208e+00
4.207955e+00 5.694829e-01 -6.885265e+00
4.256747e+00 5.726846e-01 -6.885265e+00
4.209924e+00 5.653025e-01 -6.799199e+00
3.842116e+00 5.034639e-01 -6.024607e+00
3.888456e+00 5.107340e-01 -6.110672e+00
3.934797e+00 5.180042e-01 -6.196739e+00
3.987432e+00 5.223903e-01 -6.196738e+00
3.941575e+00 5.152318e-01 -6.110672e+00
[...]
POINT_DATA 8829
SCALARS u double 1
LOOKUP_TABLE default
3.704e-03
3.781e-03
3.546e-03
3.624e-03
3.859e-03
3.704e-03
3.546e-03
3.466e-03
3.387e-03
3.937e-03
3.781e-03
4.015e-03
3.859e-03
3.702e-03
3.624e-03
4.092e-03
3.937e-03
4.170e-03
4.014e-03
3.857e-03
3.779e-03
4.248e-03
4.092e-03
4.325e-03
4.169e-03
4.014e-03
3.935e-03
4.403e-03
4.248e-03
4.481e-03
4.327e-03
4.173e-03
4.093e-03
3.229e-03
3.308e-03
3.388e-03
3.228e-03
3.149e-03
3.072e-03
3.466e-03
3.544e-03
3.385e-03
3.307e-03
3.622e-03
3.700e-03
3.542e-03
3.463e-03
3.778e-03
3.858e-03
3.702e-03
3.622e-03
3.939e-03
4.019e-03
3.866e-03
3.784e-03
2.914e-03
2.991e-03
3.069e-03
2.910e-03
2.832e-03
2.756e-03
3.147e-03
3.226e-03
3.068e-03
2.989e-03
3.305e-03
3.385e-03
3.229e-03
3.148e-03
3.466e-03
3.547e-03
3.392e-03
3.310e-03
3.629e-03
3.712e-03
3.558e-03
3.475e-03
3.688e-03
3.766e-03
3.844e-03
3.832e-03
3.754e-03
3.676e-03
3.922e-03
4.000e-03
3.989e-03
3.911e-03
4.078e-03
4.156e-03
4.146e-03
4.068e-03
4.234e-03
4.313e-03
4.303e-03
4.225e-03
4.391e-03
4.469e-03
4.461e-03
4.382e-03
3.669e-03
3.747e-03
3.826e-03
3.824e-03
3.745e-03
3.667e-03
3.904e-03
3.983e-03
3.982e-03
3.903e-03
4.062e-03
4.141e-03
4.140e-03
4.061e-03
4.220e-03
4.299e-03
4.299e-03
4.220e-03
4.378e-03
4.457e-03
4.458e-03
4.379e-03
3.670e-03
3.748e-03
3.828e-03
3.834e-03
3.755e-03
3.676e-03
3.907e-03
3.986e-03
3.994e-03
3.914e-03
4.066e-03
4.145e-03
4.153e-03
4.073e-03
4.225e-03
4.305e-03
4.313e-03
4.233e-03
4.385e-03
4.465e-03
4.474e-03
4.394e-03
3.684e-03
3.763e-03
3.843e-03
3.852e-03
3.772e-03
3.693e-03
3.922e-03
4.002e-03
4.013e-03
3.932e-03
4.082e-03
4.163e-03
4.174e-03
4.093e-03
4.243e-03
4.324e-03
4.335e-03
4.254e-03
4.404e-03
4.485e-03
4.497e-03
4.416e-03
3.659e-03
3.734e-03
3.774e-03
3.850e-03
3.807e-03
3.925e-03
3.952e-03
3.876e-03
3.801e-03
3.879e-03
3.999e-03
3.953e-03
4.073e-03
4.101e-03
4.026e-03
4.027e-03
4.147e-03
4.102e-03
4.222e-03
4.251e-03
4.176e-03
4.178e-03
4.298e-03
4.255e-03
4.373e-03
4.402e-03
4.327e-03
4.332e-03
4.449e-03
4.410e-03
4.524e-03
4.553e-03
4.478e-03
3.804e-03
3.879e-03
3.955e-03
3.947e-03
3.871e-03
3.796e-03
4.030e-03
4.105e-03
4.098e-03
4.022e-03
4.180e-03
4.256e-03
4.249e-03
4.173e-03
4.332e-03
4.408e-03
4.402e-03
4.326e-03
4.483e-03
4.559e-03
4.554e-03
4.478e-03
3.783e-03
3.858e-03
3.933e-03
3.918e-03
3.842e-03
3.767e-03
4.009e-03
4.085e-03
4.070e-03
3.994e-03
4.161e-03
4.238e-03
4.224e-03
4.147e-03
4.314e-03
4.391e-03
4.378e-03
4.301e-03
4.468e-03
4.544e-03
4.532e-03
4.455e-03
3.750e-03
3.826e-03
3.902e-03
3.886e-03
3.810e-03
3.734e-03
3.978e-03
4.055e-03
4.041e-03
3.964e-03
4.132e-03
4.210e-03
4.196e-03
4.118e-03
4.287e-03
4.364e-03
4.350e-03
4.273e-03
4.441e-03
4.518e-03
4.505e-03
4.428e-03
3.718e-03
3.795e-03
3.872e-03
3.950e-03
4.027e-03
4.105e-03
4.182e-03
4.260e-03
4.337e-03
4.415e-03
4.492e-03
2.942e-03
3.017e-03
2.792e-03
2.867e-03
3.092e-03
2.944e-03
2.792e-03
2.716e-03
2.642e-03
3.168e-03
3.018e-03
3.245e-03
3.092e-03
2.938e-03
2.865e-03
3.321e-03
3.167e-03
3.397e-03
3.241e-03
3.085e-03
3.011e-03
3.474e-03
3.316e-03
3.550e-03
3.392e-03
3.234e-03
3.159e-03
3.627e-03
3.469e-03
3.311e-03
2.492e-03
2.564e-03
2.638e-03
2.484e-03
2.413e-03
2.342e-03
2.710e-03
2.782e-03
2.626e-03
2.555e-03
2.855e-03
2.927e-03
2.770e-03
2.698e-03
3.001e-03
3.076e-03
2.918e-03
2.843e-03
3.153e-03
2.994e-03
2.193e-03
2.261e-03
2.330e-03
2.176e-03
2.109e-03
2.043e-03
2.400e-03
2.470e-03
2.314e-03
2.245e-03
2.541e-03
2.613e-03
2.457e-03
2.385e-03
2.686e-03
2.761e-03
2.604e-03
2.530e-03
2.837e-03
2.679e-03
2.907e-03
3.023e-03
2.786e-03
3.287e-03
3.588e-03
3.499e-03
3.590e-03
3.448e-03
3.548e-03
3.304e-03
3.495e-03
3.443e-03
3.394e-03
3.088e-03
3.005e-03
3.186e-03
3.346e-03
2.934e-03
2.875e-03
2.825e-03
2.841e-03
2.805e-03
2.983e-03
2.953e-03
2.775e-03
2.925e-03
3.075e-03
3.100e-03
3.125e-03
2.749e-03
2.904e-03
2.731e-03
2.887e-03
3.043e-03
3.059e-03
2.722e-03
2.882e-03
2.723e-03
2.882e-03
3.040e-03
3.042e-03
2.734e-03
2.895e-03
3.056e-03
3.267e-03
3.246e-03
3.225e-03
3.376e-03
3.392e-03
3.409e-03
3.212e-03
3.199e-03
3.355e-03
3.365e-03
3.199e-03
3.199e-03
3.358e-03
3.356e-03
3.214e-03
3.373e-03
3.551e-03
3.538e-03
3.526e-03
3.517e-03
3.511e-03
3.513e-03
3.517e-03
3.531e-03
2.921e-03
2.884e-03
3.001e-03
2.964e-03
2.932e-03
2.853e-03
3.082e-03
3.045e-03
3.163e-03
3.126e-03
3.093e-03
3.013e-03
3.245e-03
3.207e-03
3.328e-03
3.290e-03
3.257e-03
3.175e-03
3.410e-03
3.373e-03
3.494e-03
3.456e-03
3.423e-03
3.340e-03
3.578e-03
3.540e-03
3.662e-03
3.624e-03
3.591e-03
3.507e-03
2.827e-03
2.906e-03
2.887e-03
2.809e-03
2.986e-03
3.066e-03
3.047e-03
2.967e-03
3.148e-03
3.230e-03
3.210e-03
3.128e-03
3.312e-03
3.395e-03
3.375e-03
3.292e-03
3.479e-03
3.563e-03
3.543e-03
3.459e-03
2.800e-03
2.878e-03
2.879e-03
2.801e-03
2.957e-03
3.038e-03
3.038e-03
2.958e-03
3.118e-03
3.200e-03
3.200e-03
3.118e-03
3.282e-03
3.365e-03
3.364e-03
3.282e-03
3.448e-03
3.532e-03
3.531e-03
3.447e-03
2.811e-03
2.889e-03
2.968e-03
3.047e-03
3.128e-03
3.209e-03
3.291e-03
3.373e-03
3.456e-03
3.539e-03
2.863e-03
2.940e-03
2.979e-03
2.902e-03
3.018e-03
3.097e-03
3.136e-03
3.057e-03
3.177e-03
3.257e-03
3.295e-03
3.215e-03
3.338e-03
3.420e-03
3.457e-03
3.376e-03
3.502e-03
3.585e-03
3.621e-03
3.539e-03
2.952e-03
3.029e-03
3.088e-03
3.011e-03
3.106e-03
3.185e-03
3.243e-03
3.165e-03
3.263e-03
3.343e-03
3.400e-03
3.321e-03
3.423e-03
3.503e-03
3.560e-03
3.480e-03
3.585e-03
3.667e-03
3.723e-03
3.641e-03
3.082e-03
3.158e-03
3.240e-03
3.164e-03
3.235e-03
3.312e-03
3.393e-03
3.316e-03
3.390e-03
3.469e-03
3.549e-03
3.470e-03
3.548e-03
3.628e-03
3.707e-03
3.627e-03
3.708e-03
3.789e-03
3.867e-03
3.787e-03
3.262e-03
3.337e-03
3.452e-03
3.379e-03
3.412e-03
3.488e-03
3.601e-03
3.526e-03
3.565e-03
3.643e-03
3.754e-03
3.677e-03
3.722e-03
3.801e-03
3.912e-03
3.833e-03
3.880e-03
3.960e-03
4.071e-03
3.992e-03
3.527e-03
3.605e-03
3.678e-03
3.751e-03
3.826e-03
3.902e-03
3.980e-03
4.058e-03
4.133e-03
4.208e-03
3.642e-03
3.795e-03
3.948e-03
4.031e-03
3.878e-03
3.726e-03
4.101e-03
4.254e-03
4.336e-03
4.184e-03
4.407e-03
4.559e-03
4.637e-03
4.487e-03
3.810e-03
3.961e-03
4.113e-03
4.195e-03
4.044e-03
3.894e-03
4.265e-03
4.416e-03
4.495e-03
4.345e-03
4.566e-03
4.715e-03
4.793e-03
4.645e-03
3.979e-03
4.128e-03
4.277e-03
4.359e-03
4.211e-03
4.064e-03
4.426e-03
4.575e-03
4.654e-03
4.507e-03
4.723e-03
4.870e-03
4.948e-03
4.801e-03
4.150e-03
4.295e-03
4.441e-03
4.523e-03
4.379e-03
4.235e-03
4.587e-03
4.733e-03
4.812e-03
4.668e-03
4.879e-03
5.024e-03
5.101e-03
4.957e-03
4.321e-03
4.464e-03
4.606e-03
4.689e-03
4.548e-03
4.407e-03
4.749e-03
4.892e-03
4.972e-03
4.830e-03
5.035e-03
5.178e-03
5.254e-03
5.113e-03
4.293e-03
4.095e-03
3.968e-03
4.258e-03
3.742e-03
3.851e-03
4.402e-03
4.362e-03
4.249e-03
4.168e-03
3.946e-03
4.268e-03
4.001e-03
4.354e-03
4.436e-03
3.820e-03
4.325e-03
4.293e-03
4.046e-03
4.102e-03
3.801e-03
3.768e-03
3.738e-03
3.885e-03
3.913e-03
3.940e-03
3.715e-03
3.695e-03
3.848e-03
3.867e-03
3.688e-03
3.686e-03
3.841e-03
3.844e-03
3.696e-03
3.853e-03
4.079e-03
4.056e-03
4.032e-03
4.180e-03
4.199e-03
4.218e-03
4.016e-03
4.000e-03
4.153e-03
4.166e-03
3.998e-03
3.996e-03
4.151e-03
4.152e-03
4.008e-03
4.162e-03
4.357e-03
4.342e-03
4.327e-03
4.315e-03
4.306e-03
4.305e-03
4.306e-03
4.316e-03
2.925e-03
3.000e-03
3.075e-03
3.061e-03
2.985e-03
2.910e-03
3.151e-03
3.227e-03
3.213e-03
3.137e-03
3.303e-03
3.380e-03
3.366e-03
3.289e-03
3.457e-03
3.533e-03
3.520e-03
3.443e-03
3.611e-03
3.598e-03
2.901e-03
2.976e-03
3.051e-03
3.046e-03
2.971e-03
2.896e-03
3.127e-03
3.203e-03
3.199e-03
3.123e-03
3.280e-03
3.357e-03
3.354e-03
3.276e-03
3.435e-03
3.512e-03
3.510e-03
3.431e-03
3.591e-03
3.588e-03
2.896e-03
2.971e-03
3.047e-03
3.051e-03
2.975e-03
2.899e-03
3.124e-03
3.201e-03
3.205e-03
3.128e-03
3.278e-03
3.356e-03
3.361e-03
3.283e-03
3.434e-03
3.512e-03
3.518e-03
3.439e-03
3.591e-03
3.597e-03
2.904e-03
2.980e-03
3.057e-03
3.063e-03
2.986e-03
2.910e-03
3.134e-03
3.211e-03
3.219e-03
3.141e-03
3.289e-03
3.367e-03
3.376e-03
3.297e-03
3.446e-03
3.525e-03
3.534e-03
3.455e-03
3.604e-03
3.613e-03
3.631e-03
3.712e-03
3.571e-03
3.490e-03
3.792e-03
3.872e-03
3.730e-03
3.650e-03
3.952e-03
4.032e-03
3.891e-03
3.811e-03
4.113e-03
4.194e-03
4.054e-03
3.972e-03
4.276e-03
4.136e-03
3.348e-03
3.429e-03
3.286e-03
3.206e-03
3.509e-03
3.589e-03
3.447e-03
3.367e-03
3.670e-03
3.751e-03
3.610e-03
3.528e-03
3.832e-03
3.914e-03
3.774e-03
3.691e-03
3.996e-03
3.857e-03
3.063e-03
3.144e-03
3.224e-03
3.305e-03
3.387e-03
3.469e-03
3.551e-03
3.634e-03
3.717e-03
3.703e-03
3.783e-03
3.863e-03
3.876e-03
3.795e-03
3.715e-03
3.944e-03
4.024e-03
4.038e-03
3.957e-03
4.105e-03
4.186e-03
4.201e-03
4.120e-03
4.267e-03
4.348e-03
4.364e-03
4.282e-03
4.429e-03
4.510e-03
4.526e-03
4.445e-03
3.729e-03
3.810e-03
3.891e-03
3.909e-03
3.827e-03
3.746e-03
3.973e-03
4.055e-03
4.073e-03
3.991e-03
4.136e-03
4.218e-03
4.237e-03
4.155e-03
4.300e-03
4.381e-03
4.400e-03
4.319e-03
4.462e-03
4.543e-03
4.563e-03
4.481e-03
3.765e-03
3.846e-03
3.929e-03
3.950e-03
3.868e-03
3.786e-03
4.011e-03
4.093e-03
4.115e-03
4.033e-03
4.175e-03
4.258e-03
4.280e-03
4.198e-03
4.340e-03
4.421e-03
4.444e-03
4.362e-03
4.503e-03
4.585e-03
4.609e-03
4.527e-03
3.810e-03
3.892e-03
3.974e-03
4.000e-03
3.918e-03
3.836e-03
4.057e-03
4.139e-03
4.166e-03
4.083e-03
4.222e-03
4.305e-03
4.332e-03
4.249e-03
4.387e-03
4.470e-03
4.498e-03
4.415e-03
4.553e-03
4.636e-03
4.664e-03
4.581e-03
4.548e-03
4.626e-03
4.619e-03
4.540e-03
4.705e-03
4.783e-03
4.776e-03
4.698e-03
4.861e-03
4.939e-03
4.933e-03
4.855e-03
5.016e-03
5.093e-03
5.089e-03
5.011e-03
5.170e-03
5.247e-03
5.244e-03
5.166e-03
4.537e-03
4.616e-03
4.618e-03
4.538e-03
4.695e-03
4.774e-03
4.776e-03
4.697e-03
4.853e-03
4.931e-03
4.934e-03
4.856e-03
5.010e-03
5.088e-03
5.092e-03
5.013e-03
5.166e-03
5.245e-03
5.249e-03
5.171e-03
4.544e-03
4.624e-03
4.634e-03
4.554e-03
4.704e-03
4.784e-03
4.794e-03
4.714e-03
4.863e-03
4.942e-03
4.953e-03
4.874e-03
5.022e-03
5.101e-03
5.112e-03
5.033e-03
5.180e-03
5.259e-03
5.271e-03
5.192e-03
4.565e-03
4.645e-03
4.658e-03
4.577e-03
4.725e-03
4.805e-03
4.818e-03
4.738e-03
4.885e-03
4.965e-03
4.979e-03
4.898e-03
5.045e-03
5.125e-03
5.139e-03
5.059e-03
5.205e-03
5.285e-03
5.300e-03
5.219e-03
2.922e-03
2.995e-03
3.030e-03
3.105e-03
3.066e-03
3.179e-03
3.201e-03
3.127e-03
3.053e-03
3.136e-03
3.251e-03
3.207e-03
3.324e-03
3.349e-03
3.275e-03
3.280e-03
3.398e-03
3.353e-03
3.473e-03
3.498e-03
3.424e-03
3.428e-03
3.548e-03
3.505e-03
3.623e-03
3.650e-03
3.574e-03
3.582e-03
3.699e-03
3.726e-03
3.053e-03
3.127e-03
3.201e-03
3.191e-03
3.117e-03
3.043e-03
3.276e-03
3.350e-03
3.340e-03
3.265e-03
3.425e-03
3.500e-03
3.490e-03
3.415e-03
3.576e-03
3.652e-03
3.643e-03
3.566e-03
3.728e-03
3.720e-03
3.028e-03
3.102e-03
3.175e-03
3.158e-03
3.084e-03
3.011e-03
3.249e-03
3.324e-03
3.307e-03
3.232e-03
3.400e-03
3.476e-03
3.459e-03
3.383e-03
3.552e-03
3.629e-03
3.613e-03
3.536e-03
3.706e-03
3.690e-03
2.993e-03
3.066e-03
3.140e-03
3.123e-03
3.048e-03
2.975e-03
3.215e-03
3.290e-03
3.274e-03
3.198e-03
3.366e-03
3.443e-03
3.427e-03
3.350e-03
3.519e-03
3.596e-03
3.580e-03
3.503e-03
3.674e-03
3.657e-03
2.958e-03
3.032e-03
3.107e-03
3.183e-03
3.259e-03
3.335e-03
3.412e-03
3.488e-03
3.565e-03
3.641e-03
4.485e-03
4.599e-03
4.559e-03
4.674e-03
4.703e-03
4.628e-03
4.632e-03
4.748e-03
4.706e-03
4.821e-03
4.852e-03
4.777e-03
4.780e-03
4.895e-03
4.854e-03
4.969e-03
5.000e-03
4.926e-03
4.930e-03
5.043e-03
5.005e-03
5.118e-03
5.148e-03
5.074e-03
5.081e-03
5.191e-03
5.158e-03
5.265e-03
5.295e-03
5.222e-03
4.634e-03
4.709e-03
4.705e-03
4.630e-03
4.784e-03
4.859e-03
4.855e-03
4.780e-03
4.933e-03
5.008e-03
5.005e-03
4.930e-03
5.082e-03
5.156e-03
5.154e-03
5.080e-03
5.230e-03
5.304e-03
5.303e-03
5.229e-03
4.620e-03
4.695e-03
4.683e-03
4.608e-03
4.771e-03
4.846e-03
4.836e-03
4.759e-03
4.922e-03
4.997e-03
4.987e-03
4.912e-03
5.073e-03
5.148e-03
5.139e-03
5.063e-03
5.222e-03
5.297e-03
5.288e-03
5.214e-03
4.594e-03
4.671e-03
4.658e-03
4.581e-03
4.747e-03
4.824e-03
4.813e-03
4.736e-03
4.900e-03
4.977e-03
4.966e-03
4.890e-03
5.053e-03
5.129e-03
5.119e-03
5.043e-03
5.204e-03
5.279e-03
5.270e-03
5.194e-03
4.569e-03
4.647e-03
4.725e-03
4.802e-03
4.879e-03
4.956e-03
5.033e-03
5.109e-03
5.185e-03
5.261e-03
2.212e-03
2.283e-03
2.085e-03
2.154e-03
2.355e-03
2.226e-03
2.094e-03
2.024e-03
1.957e-03
2.427e-03
2.296e-03
2.500e-03
2.365e-03
2.227e-03
2.161e-03
2.573e-03
2.434e-03
2.646e-03
2.504e-03
2.361e-03
2.294e-03
2.720e-03
2.575e-03
2.794e-03
2.646e-03
2.499e-03
2.429e-03
2.868e-03
2.719e-03
2.571e-03
1.830e-03
1.894e-03
1.960e-03
1.826e-03
1.764e-03
1.703e-03
2.025e-03
2.089e-03
1.949e-03
1.888e-03
2.153e-03
2.218e-03
2.074e-03
2.011e-03
2.284e-03
2.352e-03
2.205e-03
2.138e-03
2.422e-03
2.273e-03
1.576e-03
1.634e-03
1.691e-03
1.557e-03
1.503e-03
1.449e-03
1.750e-03
1.810e-03
1.671e-03
1.614e-03
1.870e-03
1.931e-03
1.789e-03
1.729e-03
1.994e-03
2.058e-03
1.913e-03
1.850e-03
2.124e-03
1.977e-03
2.188e-03
2.298e-03
2.073e-03
2.551e-03
2.833e-03
2.750e-03
2.853e-03
2.718e-03
2.811e-03
2.578e-03
2.759e-03
2.707e-03
2.658e-03
2.369e-03
2.288e-03
2.464e-03
2.610e-03
2.219e-03
2.161e-03
2.112e-03
2.110e-03
2.078e-03
2.244e-03
2.217e-03
2.051e-03
2.193e-03
2.334e-03
2.356e-03
2.377e-03
2.029e-03
2.175e-03
2.014e-03
2.161e-03
2.307e-03
2.321e-03
2.007e-03
2.158e-03
2.009e-03
2.159e-03
2.309e-03
2.308e-03
2.021e-03
2.173e-03
2.325e-03
2.510e-03
2.493e-03
2.475e-03
2.617e-03
2.630e-03
2.643e-03
2.465e-03
2.454e-03
2.602e-03
2.609e-03
2.457e-03
2.459e-03
2.610e-03
2.606e-03
2.476e-03
2.626e-03
2.776e-03
2.767e-03
2.758e-03
2.753e-03
2.749e-03
2.753e-03
2.760e-03
2.775e-03
2.179e-03
2.147e-03
2.249e-03
2.216e-03
2.188e-03
2.119e-03
2.320e-03
2.286e-03
2.392e-03
2.358e-03
2.329e-03
2.258e-03
2.464e-03
2.430e-03
2.538e-03
2.503e-03
2.474e-03
2.401e-03
2.613e-03
2.578e-03
2.688e-03
2.653e-03
2.622e-03
2.547e-03
2.764e-03
2.729e-03
2.698e-03
2.096e-03
2.164e-03
2.148e-03
2.081e-03
2.234e-03
2.304e-03
2.288e-03
2.218e-03
2.376e-03
2.449e-03
2.431e-03
2.359e-03
2.522e-03
2.597e-03
2.579e-03
2.505e-03
2.673e-03
2.655e-03
2.074e-03
2.141e-03
2.143e-03
2.076e-03
2.210e-03
2.280e-03
2.282e-03
2.212e-03
2.351e-03
2.423e-03
2.425e-03
2.353e-03
2.497e-03
2.571e-03
2.572e-03
2.498e-03
2.646e-03
2.647e-03
2.087e-03
2.155e-03
2.223e-03
2.293e-03
2.364e-03
2.436e-03
2.509e-03
2.583e-03
2.658e-03
2.140e-03
2.207e-03
2.247e-03
2.180e-03
2.276e-03
2.345e-03
2.386e-03
2.316e-03
2.416e-03
2.488e-03
2.528e-03
2.456e-03
2.560e-03
2.634e-03
2.674e-03
2.600e-03
2.709e-03
2.749e-03
2.229e-03
2.297e-03
2.356e-03
2.288e-03
2.366e-03
2.436e-03
2.495e-03
2.425e-03
2.506e-03
2.578e-03
2.638e-03
2.566e-03
2.650e-03
2.723e-03
2.783e-03
2.710e-03
2.798e-03
2.858e-03
2.357e-03
2.426e-03
2.507e-03
2.438e-03
2.495e-03
2.566e-03
2.647e-03
2.576e-03
2.637e-03
2.709e-03
2.791e-03
2.718e-03
2.781e-03
2.854e-03
2.937e-03
2.863e-03
2.929e-03
3.012e-03
2.534e-03
2.603e-03
2.717e-03
2.648e-03
2.673e-03
2.743e-03
2.856e-03
2.786e-03
2.815e-03
2.888e-03
3.001e-03
2.928e-03
2.961e-03
3.035e-03
3.151e-03
3.075e-03
3.110e-03
3.227e-03
2.794e-03
2.868e-03
2.937e-03
3.007e-03
3.078e-03
3.152e-03
3.226e-03
3.303e-03
3.375e-03
2.853e-03
2.930e-03
2.795e-03
2.719e-03
3.006e-03
3.082e-03
2.945e-03
2.870e-03
3.159e-03
3.236e-03
3.096e-03
3.020e-03
3.313e-03
3.392e-03
3.251e-03
3.173e-03
3.471e-03
3.330e-03
2.584e-03
2.659e-03
2.523e-03
2.450e-03
2.733e-03
2.807e-03
2.669e-03
2.596e-03
2.882e-03
2.957e-03
2.818e-03
2.743e-03
3.033e-03
3.110e-03
2.970e-03
2.893e-03
3.188e-03
3.047e-03
2.315e-03
2.386e-03
2.458e-03
2.531e-03
2.604e-03
2.678e-03
2.753e-03
2.829e-03
2.905e-03
3.311e-03
3.237e-03
3.399e-03
3.333e-03
3.167e-03
3.270e-03
3.373e-03
3.429e-03
3.486e-03
3.101e-03
3.213e-03
3.040e-03
3.158e-03
3.275e-03
3.324e-03
2.983e-03
3.109e-03
2.931e-03
3.062e-03
3.192e-03
3.234e-03
2.884e-03
3.021e-03
3.159e-03
3.573e-03
3.525e-03
3.476e-03
3.579e-03
3.620e-03
3.661e-03
3.434e-03
3.393e-03
3.510e-03
3.545e-03
3.358e-03
3.323e-03
3.453e-03
3.482e-03
3.295e-03
3.431e-03
3.748e-03
3.715e-03
3.683e-03
3.655e-03
3.628e-03
3.606e-03
3.584e-03
3.567e-03
3.394e-03
3.319e-03
3.477e-03
3.402e-03
3.331e-03
3.248e-03
3.561e-03
3.485e-03
3.644e-03
3.568e-03
3.497e-03
3.414e-03
3.728e-03
3.652e-03
3.812e-03
3.736e-03
3.664e-03
3.580e-03
3.896e-03
3.820e-03
3.980e-03
3.904e-03
3.832e-03
3.748e-03
4.065e-03
3.988e-03
4.149e-03
4.073e-03
4.000e-03
3.916e-03
3.182e-03
3.264e-03
3.202e-03
3.120e-03
3.346e-03
3.429e-03
3.367e-03
3.284e-03
3.512e-03
3.596e-03
3.533e-03
3.449e-03
3.680e-03
3.764e-03
3.700e-03
3.616e-03
3.848e-03
3.933e-03
3.869e-03
3.784e-03
3.063e-03
3.145e-03
3.092e-03
3.011e-03
3.226e-03
3.309e-03
3.255e-03
3.173e-03
3.391e-03
3.474e-03
3.420e-03
3.338e-03
3.557e-03
3.641e-03
3.587e-03
3.504e-03
3.726e-03
3.810e-03
3.756e-03
3.671e-03
2.963e-03
3.044e-03
3.125e-03
3.207e-03
3.289e-03
3.371e-03
3.454e-03
3.538e-03
3.622e-03
3.706e-03
3.748e-03
3.709e-03
3.834e-03
3.795e-03
3.761e-03
3.676e-03
3.920e-03
3.881e-03
4.006e-03
3.967e-03
3.933e-03
3.847e-03
4.093e-03
4.054e-03
4.180e-03
4.141e-03
4.107e-03
4.020e-03
4.267e-03
4.228e-03
4.353e-03
4.315e-03
4.280e-03
4.193e-03
4.440e-03
4.401e-03
4.527e-03
4.489e-03
4.454e-03
4.367e-03
3.648e-03
3.733e-03
3.712e-03
3.627e-03
3.819e-03
3.905e-03
3.884e-03
3.798e-03
3.991e-03
4.078e-03
4.056e-03
3.970e-03
4.164e-03
4.251e-03
4.230e-03
4.143e-03
4.338e-03
4.425e-03
4.404e-03
4.317e-03
3.616e-03
3.701e-03
3.700e-03
3.615e-03
3.786e-03
3.872e-03
3.870e-03
3.784e-03
3.958e-03
4.044e-03
4.041e-03
3.955e-03
4.131e-03
4.217e-03
4.214e-03
4.127e-03
4.304e-03
4.391e-03
4.387e-03
4.300e-03
3.623e-03
3.707e-03
3.792e-03
3.877e-03
3.962e-03
4.048e-03
4.134e-03
4.220e-03
4.306e-03
4.392e-03
3.668e-03
3.752e-03
3.787e-03
3.704e-03
3.835e-03
3.919e-03
3.954e-03
3.870e-03
4.004e-03
4.088e-03
4.121e-03
4.037e-03
4.173e-03
4.258e-03
4.290e-03
4.206e-03
4.344e-03
4.429e-03
4.460e-03
4.375e-03
3.749e-03
3.832e-03
3.886e-03
3.804e-03
3.914e-03
3.997e-03
4.049e-03
3.967e-03
4.080e-03
4.163e-03
4.214e-03
4.132e-03
4.247e-03
4.331e-03
4.380e-03
4.297e-03
4.414e-03
4.499e-03
4.547e-03
4.464e-03
3.870e-03
3.950e-03
4.026e-03
3.947e-03
4.031e-03
4.112e-03
4.186e-03
4.106e-03
4.194e-03
4.276e-03
4.347e-03
4.266e-03
4.358e-03
4.440e-03
4.510e-03
4.428e-03
4.523e-03
4.605e-03
4.674e-03
4.592e-03
4.039e-03
4.117e-03
4.225e-03
4.149e-03
4.195e-03
4.274e-03
4.378e-03
4.301e-03
4.353e-03
4.433e-03
4.534e-03
4.456e-03
4.513e-03
4.594e-03
4.693e-03
4.613e-03
4.675e-03
4.756e-03
4.855e-03
4.774e-03
4.289e-03
4.368e-03
4.442e-03
4.517e-03
4.593e-03
4.670e-03
4.747e-03
4.826e-03
4.901e-03
4.977e-03
4.537e-03
4.530e-03
4.673e-03
4.681e-03
4.535e-03
4.545e-03
4.686e-03
4.679e-03
4.566e-03
4.591e-03
4.727e-03
4.706e-03
4.622e-03
4.656e-03
4.785e-03
4.756e-03
4.823e-03
4.815e-03
4.958e-03
4.965e-03
4.821e-03
4.826e-03
4.967e-03
4.963e-03
4.845e-03
4.863e-03
4.999e-03
4.983e-03
4.888e-03
4.913e-03
5.042e-03
5.020e-03
5.106e-03
5.101e-03
5.104e-03
5.108e-03
5.121e-03
5.135e-03
5.153e-03
5.171e-03
4.606e-03
4.746e-03
4.700e-03
5.083e-03
4.936e-03
5.022e-03
4.837e-03
5.104e-03
5.071e-03
5.030e-03
4.990e-03
4.952e-03
4.918e-03
4.851e-03
4.883e-03
3.886e-03
4.025e-03
4.109e-03
3.972e-03
4.163e-03
4.301e-03
4.384e-03
4.247e-03
4.439e-03
4.521e-03
4.057e-03
4.194e-03
4.278e-03
4.142e-03
4.330e-03
4.466e-03
4.548e-03
4.413e-03
4.602e-03
4.683e-03
4.228e-03
4.362e-03
4.446e-03
4.313e-03
4.496e-03
4.630e-03
4.712e-03
4.579e-03
4.764e-03
4.845e-03
4.399e-03
4.531e-03
4.615e-03
4.484e-03
4.662e-03
4.794e-03
4.876e-03
4.745e-03
4.926e-03
5.007e-03
4.570e-03
4.700e-03
4.829e-03
4.959e-03
5.089e-03
4.235e-03
4.168e-03
4.102e-03
4.203e-03
4.262e-03
4.321e-03
4.042e-03
3.985e-03
4.100e-03
4.152e-03
3.933e-03
3.884e-03
4.012e-03
4.056e-03
3.841e-03
3.976e-03
4.407e-03
4.356e-03
4.305e-03
4.406e-03
4.449e-03
4.493e-03
4.260e-03
4.216e-03
4.331e-03
4.369e-03
4.178e-03
4.141e-03
4.269e-03
4.300e-03
4.110e-03
4.244e-03
4.579e-03
4.542e-03
4.507e-03
4.477e-03
4.447e-03
4.422e-03
4.397e-03
4.377e-03
2.195e-03
2.266e-03
2.337e-03
2.322e-03
2.251e-03
2.181e-03
2.409e-03
2.482e-03
2.466e-03
2.394e-03
2.554e-03
2.628e-03
2.612e-03
2.539e-03