# vtk DataFile Version 3.0
vtk output
ASCII
DATASET UNSTRUCTURED_GRID
POINTS 6781 double
1.883712e+00 8.612023e-02 -3.592542e+00
1.903433e+00 8.781750e-02 -3.656696e+00
1.883712e+00 1.031566e-01 -3.592542e+00
1.903433e+00 1.045883e-01 -3.656695e+00
1.923155e+00 8.952589e-02 -3.720849e+00
1.923154e+00 1.060255e-01 -3.720849e+00
1.923154e+00 1.225251e-01 -3.720848e+00
1.903433e+00 1.213590e-01 -3.656695e+00
1.883712e+00 1.201930e-01 -3.592542e+00
1.942876e+00 9.124596e-02 -3.785002e+00
1.942876e+00 1.074811e-01 -3.785002e+00
1.962597e+00 9.297834e-02 -3.849155e+00
1.962597e+00 1.089430e-01 -3.849154e+00
1.962597e+00 1.249076e-01 -3.849154e+00
1.942876e+00 1.237163e-01 -3.785001e+00
1.982318e+00 9.472369e-02 -3.913307e+00
1.982318e+00 1.104252e-01 -3.913307e+00
2.002039e+00 9.648271e-02 -3.977459e+00
2.002039e+00 1.119144e-01 -3.977459e+00
2.002039e+00 1.273460e-01 -3.977459e+00
1.982318e+00 1.261268e-01 -3.913306e+00
2.021760e+00 9.825618e-02 -4.041611e+00
2.021760e+00 1.134263e-01 -4.041611e+00
2.041481e+00 1.000449e-01 -4.105762e+00
2.041481e+00 1.149458e-01 -4.105762e+00
2.041481e+00 1.298467e-01 -4.105762e+00
2.021760e+00 1.285964e-01 -4.041610e+00
1.883712e+00 1.372294e-01 -3.592542e+00
1.903433e+00 1.381270e-01 -3.656695e+00
1.923154e+00 1.390247e-01 -3.720848e+00
1.923154e+00 1.555243e-01 -3.720848e+00
1.903433e+00 1.548950e-01 -3.656695e+00
1.883712e+00 1.542657e-01 -3.592542e+00
1.942876e+00 1.399484e-01 -3.785001e+00
1.962597e+00 1.408722e-01 -3.849154e+00
1.962597e+00 1.568368e-01 -3.849153e+00
1.942875e+00 1.561806e-01 -3.785001e+00
1.982318e+00 1.418249e-01 -3.913306e+00
2.002039e+00 1.427776e-01 -3.977458e+00
2.002039e+00 1.582093e-01 -3.977458e+00
1.982318e+00 1.575231e-01 -3.913306e+00
2.021760e+00 1.437626e-01 -4.041610e+00
2.041481e+00 1.447476e-01 -4.105762e+00
2.041481e+00 1.596485e-01 -4.105762e+00
2.021760e+00 1.589289e-01 -4.041610e+00
1.883712e+00 1.713021e-01 -3.592542e+00
1.903433e+00 1.716596e-01 -3.656695e+00
1.923154e+00 1.720239e-01 -3.720848e+00
1.923154e+00 1.885235e-01 -3.720847e+00
1.903433e+00 1.884242e-01 -3.656695e+00
1.883712e+00 1.883385e-01 -3.592542e+00
1.942875e+00 1.724089e-01 -3.785000e+00
1.962596e+00 1.728014e-01 -3.849153e+00
1.962596e+00 1.887661e-01 -3.849152e+00
1.942875e+00 1.886372e-01 -3.785000e+00
1.982317e+00 1.732170e-01 -3.913305e+00
2.002038e+00 1.736409e-01 -3.977458e+00
2.002038e+00 1.890726e-01 -3.977458e+00
1.982317e+00 1.889109e-01 -3.913305e+00
2.021760e+00 1.740904e-01 -4.041610e+00
2.041481e+00 1.745494e-01 -4.105762e+00
2.041481e+00 1.894502e-01 -4.105762e+00
2.021760e+00 1.892520e-01 -4.041610e+00
1.522738e+00 1.225785e-01 -3.592542e+00
1.549930e+00 1.247674e-01 -3.656695e+00
1.582901e+00 1.165021e-01 -3.592542e+00
1.608847e+00 1.186091e-01 -3.656695e+00
1.577122e+00 1.269563e-01 -3.720847e+00
1.634794e+00 1.207179e-01 -3.720847e+00
1.692466e+00 1.144795e-01 -3.720848e+00
1.667764e+00 1.124508e-01 -3.656695e+00
1.643063e+00 1.104257e-01 -3.592542e+00
1.604313e+00 1.291452e-01 -3.785000e+00
1.660740e+00 1.228287e-01 -3.785000e+00
1.631505e+00 1.313341e-01 -3.849152e+00
1.686687e+00 1.249415e-01 -3.849153e+00
1.741869e+00 1.185488e-01 -3.849153e+00
1.717167e+00 1.165122e-01 -3.785001e+00
1.658697e+00 1.335230e-01 -3.913305e+00
1.712634e+00 1.270565e-01 -3.913305e+00
1.685889e+00 1.357119e-01 -3.977457e+00
1.738580e+00 1.291737e-01 -3.977458e+00
1.791272e+00 1.226355e-01 -3.977458e+00
1.766570e+00 1.205899e-01 -3.913306e+00
1.713081e+00 1.379008e-01 -4.041610e+00
1.764527e+00 1.312934e-01 -4.041610e+00
1.740272e+00 1.400897e-01 -4.105762e+00
1.790474e+00 1.334156e-01 -4.105762e+00
1.840675e+00 1.267414e-01 -4.105762e+00
1.815973e+00 1.246860e-01 -4.041610e+00
1.703225e+00 1.043494e-01 -3.592542e+00
1.726681e+00 1.062925e-01 -3.656695e+00
1.750138e+00 1.082411e-01 -3.720848e+00
1.807810e+00 1.020027e-01 -3.720848e+00
1.785598e+00 1.001342e-01 -3.656695e+00
1.763387e+00 9.827298e-02 -3.592542e+00
1.773594e+00 1.101956e-01 -3.785001e+00
1.797051e+00 1.121562e-01 -3.849154e+00
1.852233e+00 1.057636e-01 -3.849154e+00
1.830021e+00 1.038791e-01 -3.785001e+00
1.820507e+00 1.141234e-01 -3.913306e+00
1.843964e+00 1.160973e-01 -3.977458e+00
1.896656e+00 1.095591e-01 -3.977458e+00
1.874444e+00 1.076569e-01 -3.913306e+00
1.867420e+00 1.180786e-01 -4.041611e+00
1.890876e+00 1.200673e-01 -4.105762e+00
1.941078e+00 1.133932e-01 -4.105762e+00
1.918866e+00 1.114712e-01 -4.041611e+00
1.823550e+00 9.219660e-02 -3.592542e+00
1.844516e+00 9.397584e-02 -3.656696e+00
1.865482e+00 9.576429e-02 -3.720849e+00
1.886449e+00 9.756254e-02 -3.785002e+00
1.907415e+00 9.937097e-02 -3.849154e+00
1.928381e+00 1.011903e-01 -3.913307e+00
1.949347e+00 1.030209e-01 -3.977459e+00
1.970313e+00 1.048637e-01 -4.041611e+00
1.991279e+00 1.067190e-01 -4.105762e+00
1.934386e+00 8.100215e-02 -3.592542e+00
1.953272e+00 8.260806e-02 -3.656696e+00
1.972159e+00 8.422501e-02 -3.720849e+00
2.021164e+00 7.892414e-02 -3.720849e+00
2.003111e+00 7.739862e-02 -3.656696e+00
1.985060e+00 7.588407e-02 -3.592542e+00
1.991045e+00 8.585374e-02 -3.785002e+00
2.009932e+00 8.749468e-02 -3.849155e+00
2.057268e+00 8.201101e-02 -3.849154e+00
2.039215e+00 8.046152e-02 -3.785002e+00
2.028818e+00 8.914869e-02 -3.913307e+00
2.047705e+00 9.081627e-02 -3.977459e+00
2.093371e+00 8.514982e-02 -3.977459e+00
2.075319e+00 8.357369e-02 -3.913307e+00
2.066591e+00 9.249841e-02 -4.041611e+00
2.085477e+00 9.419569e-02 -4.105762e+00
2.129474e+00 8.834646e-02 -4.105762e+00
2.111422e+00 8.674065e-02 -4.041611e+00
2.035734e+00 7.076599e-02 -3.592542e+00
2.052951e+00 7.218915e-02 -3.656696e+00
2.070169e+00 7.362328e-02 -3.720849e+00
2.119173e+00 6.832241e-02 -3.720849e+00
2.102790e+00 6.697968e-02 -3.656696e+00
2.086408e+00 6.564792e-02 -3.592542e+00
2.087385e+00 7.506925e-02 -3.785002e+00
2.104603e+00 7.652736e-02 -3.849154e+00
2.151938e+00 7.104370e-02 -3.849154e+00
2.135555e+00 6.967699e-02 -3.785002e+00
2.121819e+00 7.799864e-02 -3.913307e+00
2.139037e+00 7.948337e-02 -3.977459e+00
2.184703e+00 7.381693e-02 -3.977459e+00
2.168320e+00 7.242358e-02 -3.913307e+00
2.156253e+00 8.098280e-02 -4.041611e+00
2.173470e+00 8.249722e-02 -4.105762e+00
2.217467e+00 7.664800e-02 -4.105762e+00
2.201084e+00 7.522497e-02 -4.041611e+00
2.137082e+00 6.052984e-02 -3.592542e+00
2.152630e+00 6.177020e-02 -3.656695e+00
2.168178e+00 6.302153e-02 -3.720849e+00
2.217183e+00 5.772067e-02 -3.720848e+00
2.202469e+00 5.656072e-02 -3.656695e+00
2.187757e+00 5.541176e-02 -3.592542e+00
2.183725e+00 6.428472e-02 -3.785002e+00
2.199274e+00 6.556004e-02 -3.849154e+00
2.246609e+00 6.007638e-02 -3.849154e+00
2.231895e+00 5.889245e-02 -3.785002e+00
2.214820e+00 6.684852e-02 -3.913307e+00
2.230369e+00 6.815048e-02 -3.977459e+00
2.276035e+00 6.248403e-02 -3.977459e+00
2.261321e+00 6.127347e-02 -3.913307e+00
2.245915e+00 6.946713e-02 -4.041611e+00
2.261464e+00 7.079876e-02 -4.105762e+00
2.305461e+00 6.494953e-02 -4.105762e+00
2.290747e+00 6.370928e-02 -4.041611e+00
2.238431e+00 5.029368e-02 -3.592542e+00
2.252309e+00 5.135122e-02 -3.656695e+00
2.266187e+00 5.241980e-02 -3.720848e+00
2.315192e+00 4.711893e-02 -3.720848e+00
2.302149e+00 4.614171e-02 -3.656695e+00
2.289105e+00 4.517561e-02 -3.592542e+00
2.280066e+00 5.350015e-02 -3.785001e+00
2.293944e+00 5.459272e-02 -3.849154e+00
2.341280e+00 4.910906e-02 -3.849154e+00
2.328236e+00 4.810784e-02 -3.785001e+00
2.307822e+00 5.569836e-02 -3.913306e+00
2.321701e+00 5.681758e-02 -3.977458e+00
2.367367e+00 5.115114e-02 -3.977458e+00
2.354323e+00 5.012326e-02 -3.913306e+00
2.335579e+00 5.795138e-02 -4.041611e+00
2.349457e+00 5.910030e-02 -4.105762e+00
2.393454e+00 5.325107e-02 -4.105762e+00
2.380410e+00 5.219347e-02 -4.041611e+00
1.725943e+00 7.288422e-02 -3.079322e+00
1.745664e+00 7.450942e-02 -3.143475e+00
1.725943e+00 9.208250e-02 -3.079322e+00
1.745664e+00 9.343838e-02 -3.143475e+00
1.765386e+00 7.614224e-02 -3.207628e+00
1.765386e+00 9.479808e-02 -3.207628e+00
1.765385e+00 1.134539e-01 -3.207628e+00
1.745664e+00 1.123673e-01 -3.143475e+00
1.725943e+00 1.112808e-01 -3.079322e+00
1.785107e+00 7.778303e-02 -3.271781e+00
1.785107e+00 9.617034e-02 -3.271780e+00
1.804828e+00 7.943214e-02 -3.335933e+00
1.804828e+00 9.754677e-02 -3.335933e+00
1.804828e+00 1.156614e-01 -3.335933e+00
1.785107e+00 1.145577e-01 -3.271780e+00
1.824549e+00 8.109000e-02 -3.400086e+00
1.824549e+00 9.893698e-02 -3.400086e+00
1.844270e+00 8.275699e-02 -3.464238e+00
1.844270e+00 1.003318e-01 -3.464238e+00
1.844270e+00 1.179065e-01 -3.464238e+00
1.824549e+00 1.167840e-01 -3.400085e+00
1.863991e+00 8.443357e-02 -3.528390e+00
1.863991e+00 1.017417e-01 -3.528390e+00
1.863991e+00 1.190498e-01 -3.528390e+00
1.725943e+00 1.304791e-01 -3.079322e+00
1.745664e+00 1.312944e-01 -3.143475e+00
1.765385e+00 1.321098e-01 -3.207627e+00
1.765385e+00 1.507656e-01 -3.207627e+00
1.745664e+00 1.502215e-01 -3.143474e+00
1.725943e+00 1.496773e-01 -3.079322e+00
1.785107e+00 1.329429e-01 -3.271780e+00
1.804828e+00 1.337760e-01 -3.335933e+00
1.804828e+00 1.518907e-01 -3.335932e+00
1.785106e+00 1.513281e-01 -3.271780e+00
1.824549e+00 1.346287e-01 -3.400085e+00
1.844270e+00 1.354813e-01 -3.464238e+00
1.844270e+00 1.530561e-01 -3.464237e+00
1.824549e+00 1.524734e-01 -3.400085e+00
1.863991e+00 1.363553e-01 -3.528390e+00
1.863991e+00 1.536609e-01 -3.528390e+00
1.725943e+00 1.688756e-01 -3.079322e+00
1.745664e+00 1.691462e-01 -3.143474e+00
1.765385e+00 1.694214e-01 -3.207627e+00
1.765385e+00 1.880773e-01 -3.207627e+00
1.745664e+00 1.880709e-01 -3.143474e+00
1.725943e+00 1.880739e-01 -3.079322e+00
1.785106e+00 1.697108e-01 -3.271780e+00
1.804827e+00 1.700053e-01 -3.335932e+00
1.804827e+00 1.881199e-01 -3.335932e+00
1.785106e+00 1.880935e-01 -3.271779e+00
1.824549e+00 1.703152e-01 -3.400085e+00
1.844270e+00 1.706308e-01 -3.464237e+00
1.844270e+00 1.882056e-01 -3.464237e+00
1.824548e+00 1.881571e-01 -3.400084e+00
1.863991e+00 1.709634e-01 -3.528390e+00
1.863991e+00 1.882658e-01 -3.528389e+00
1.524441e+00 1.394428e-01 -3.592542e+00
1.584320e+00 1.333951e-01 -3.592542e+00
[...]
POINT_DATA 6781
SCALARS u double 1
LOOKUP_TABLE default
3.031e-04
3.255e-04
3.003e-04
3.229e-04
3.487e-04
3.462e-04
3.433e-04
3.201e-04
2.976e-04
3.727e-04
3.699e-04
3.974e-04
3.944e-04
3.914e-04
3.670e-04
4.226e-04
4.195e-04
4.485e-04
4.453e-04
4.423e-04
4.165e-04
4.749e-04
4.719e-04
5.017e-04
4.990e-04
4.964e-04
4.691e-04
2.948e-04
3.171e-04
3.403e-04
3.372e-04
3.140e-04
2.920e-04
3.640e-04
3.884e-04
3.855e-04
3.610e-04
4.136e-04
4.395e-04
4.368e-04
4.108e-04
4.663e-04
4.937e-04
4.910e-04
4.636e-04
2.891e-04
3.110e-04
3.341e-04
3.311e-04
3.081e-04
2.861e-04
3.580e-04
3.826e-04
3.798e-04
3.550e-04
4.080e-04
4.341e-04
4.315e-04
4.053e-04
4.609e-04
4.883e-04
4.855e-04
4.582e-04
3.081e-04
3.298e-04
3.079e-04
3.294e-04
3.522e-04
3.523e-04
3.523e-04
3.290e-04
3.072e-04
3.752e-04
3.758e-04
3.989e-04
3.998e-04
4.005e-04
3.762e-04
4.232e-04
4.243e-04
4.481e-04
4.492e-04
4.499e-04
4.250e-04
4.735e-04
4.745e-04
4.992e-04
5.001e-04
5.006e-04
4.751e-04
3.064e-04
3.284e-04
3.520e-04
3.512e-04
3.277e-04
3.054e-04
3.760e-04
4.004e-04
3.995e-04
3.752e-04
4.250e-04
4.500e-04
4.495e-04
4.243e-04
4.752e-04
5.010e-04
5.012e-04
4.751e-04
3.044e-04
3.267e-04
3.500e-04
3.739e-04
3.983e-04
4.233e-04
4.488e-04
4.749e-04
5.015e-04
3.011e-04
3.234e-04
3.471e-04
3.455e-04
3.212e-04
2.986e-04
3.716e-04
3.967e-04
3.961e-04
3.706e-04
4.222e-04
4.483e-04
4.481e-04
4.220e-04
4.747e-04
5.014e-04
5.008e-04
4.744e-04
2.959e-04
3.189e-04
3.438e-04
3.419e-04
3.165e-04
2.931e-04
3.695e-04
3.954e-04
3.940e-04
3.679e-04
4.214e-04
4.475e-04
4.463e-04
4.202e-04
4.736e-04
5.000e-04
4.989e-04
4.725e-04
2.902e-04
3.140e-04
3.396e-04
3.370e-04
3.113e-04
2.873e-04
3.657e-04
3.919e-04
3.892e-04
3.630e-04
4.182e-04
4.445e-04
4.422e-04
4.156e-04
4.710e-04
4.978e-04
4.965e-04
4.692e-04
2.844e-04
3.087e-04
3.341e-04
3.313e-04
3.058e-04
2.813e-04
3.600e-04
3.863e-04
3.837e-04
3.573e-04
4.129e-04
4.399e-04
4.378e-04
4.106e-04
4.673e-04
4.950e-04
4.933e-04
4.654e-04
1.503e-04
1.665e-04
1.503e-04
1.660e-04
1.840e-04
1.827e-04
1.813e-04
1.653e-04
1.502e-04
2.022e-04
2.000e-04
2.210e-04
2.181e-04
2.157e-04
1.980e-04
2.406e-04
2.373e-04
2.608e-04
2.574e-04
2.544e-04
2.345e-04
2.817e-04
2.786e-04
2.757e-04
1.500e-04
1.645e-04
1.799e-04
1.786e-04
1.637e-04
1.499e-04
1.962e-04
2.135e-04
2.116e-04
1.946e-04
2.320e-04
2.517e-04
2.494e-04
2.299e-04
2.730e-04
2.702e-04
1.496e-04
1.630e-04
1.776e-04
1.768e-04
1.627e-04
1.494e-04
1.932e-04
2.100e-04
2.087e-04
1.921e-04
2.280e-04
2.472e-04
2.452e-04
2.264e-04
2.677e-04
2.652e-04
2.993e-04
3.006e-04
3.010e-04
2.947e-04
2.932e-04
2.910e-04
3.011e-04
3.011e-04
2.968e-04
2.959e-04
3.008e-04
2.973e-04
2.830e-04
2.858e-04
2.884e-04
2.821e-04
2.784e-04
2.749e-04
2.905e-04
2.923e-04
2.878e-04
2.852e-04
2.937e-04
2.901e-04
2.667e-04
2.711e-04
2.758e-04
2.694e-04
2.639e-04
2.581e-04
2.798e-04
2.833e-04
2.787e-04
2.744e-04
2.864e-04
2.825e-04
3.036e-04
3.027e-04
3.000e-04
2.998e-04
3.017e-04
2.993e-04
2.971e-04
2.969e-04
2.964e-04
3.002e-04
2.986e-04
2.982e-04
2.975e-04
2.967e-04
2.971e-04
2.958e-04
2.959e-04
2.928e-04
2.939e-04
2.950e-04
2.960e-04
2.895e-04
2.915e-04
2.936e-04
2.927e-04
2.938e-04
2.948e-04
2.924e-04
2.907e-04
2.889e-04
2.955e-04
2.959e-04
2.951e-04
2.938e-04
2.961e-04
2.960e-04
2.969e-04
2.961e-04
2.956e-04
2.975e-04
2.852e-04
2.876e-04
2.899e-04
2.921e-04
2.942e-04
2.961e-04
2.978e-04
2.993e-04
4.832e-04
4.559e-04
4.807e-04
4.533e-04
4.260e-04
4.289e-04
4.778e-04
4.501e-04
4.745e-04
4.465e-04
4.188e-04
4.227e-04
4.709e-04
4.425e-04
4.671e-04
4.380e-04
4.096e-04
4.143e-04
4.025e-04
3.994e-04
3.734e-04
3.768e-04
3.957e-04
3.916e-04
3.652e-04
3.695e-04
3.870e-04
3.819e-04
3.550e-04
3.604e-04
3.518e-04
3.482e-04
3.239e-04
3.277e-04
3.442e-04
3.397e-04
3.151e-04
3.197e-04
3.347e-04
3.291e-04
3.042e-04
3.100e-04
3.045e-04
3.006e-04
2.963e-04
2.916e-04
2.863e-04
2.805e-04
4.995e-04
4.985e-04
4.728e-04
4.719e-04
4.973e-04
4.708e-04
4.448e-04
4.458e-04
4.465e-04
4.958e-04
4.694e-04
4.942e-04
4.677e-04
4.416e-04
4.434e-04
4.922e-04
4.657e-04
4.901e-04
4.634e-04
4.370e-04
4.394e-04
4.878e-04
4.608e-04
4.342e-04
4.209e-04
4.201e-04
4.191e-04
3.939e-04
3.950e-04
3.958e-04
4.176e-04
4.158e-04
3.905e-04
3.924e-04
4.135e-04
4.110e-04
3.857e-04
3.883e-04
4.082e-04
3.828e-04
3.714e-04
3.706e-04
3.695e-04
3.457e-04
3.469e-04
3.478e-04
3.679e-04
3.659e-04
3.422e-04
3.442e-04
3.637e-04
3.611e-04
3.374e-04
3.400e-04
3.582e-04
3.344e-04
3.253e-04
3.243e-04
3.231e-04
3.215e-04
3.196e-04
3.173e-04
3.145e-04
3.114e-04
5.133e-04
5.160e-04
5.187e-04
5.470e-04
5.444e-04
5.417e-04
5.214e-04
5.240e-04
5.520e-04
5.496e-04
5.264e-04
5.286e-04
5.560e-04
5.542e-04
5.704e-04
5.730e-04
5.756e-04
6.043e-04
6.018e-04
5.993e-04
5.780e-04
5.803e-04
6.088e-04
6.067e-04
5.823e-04
5.840e-04
6.124e-04
6.108e-04
6.283e-04
6.308e-04
6.332e-04
6.623e-04
6.600e-04
6.575e-04
6.355e-04
6.377e-04
6.668e-04
6.646e-04
6.396e-04
6.413e-04
6.707e-04
6.688e-04
6.866e-04
6.891e-04
6.915e-04
7.208e-04
7.183e-04
7.158e-04
6.938e-04
6.961e-04
7.257e-04
7.233e-04
6.983e-04
7.005e-04
7.307e-04
7.282e-04
4.936e-04
4.952e-04
4.963e-04
4.920e-04
4.903e-04
4.882e-04
4.972e-04
4.979e-04
4.945e-04
4.934e-04
4.985e-04
4.955e-04
4.830e-04
4.854e-04
4.876e-04
4.832e-04
4.805e-04
4.778e-04
4.895e-04
4.911e-04
4.876e-04
4.856e-04
4.925e-04
4.895e-04
4.726e-04
4.757e-04
4.789e-04
4.817e-04
4.842e-04
4.863e-04
4.986e-04
4.981e-04
4.973e-04
4.972e-04
4.976e-04
4.977e-04
4.963e-04
4.951e-04
4.960e-04
4.967e-04
4.937e-04
4.920e-04
4.938e-04
4.950e-04
4.902e-04
4.925e-04
4.966e-04
4.970e-04
4.971e-04
4.969e-04
4.963e-04
4.955e-04
4.970e-04
4.968e-04
4.975e-04
4.973e-04
4.963e-04
4.956e-04
4.974e-04
4.976e-04
4.948e-04
4.970e-04
4.944e-04
4.957e-04
4.967e-04
4.976e-04
4.983e-04
4.988e-04
4.991e-04
4.992e-04
4.436e-04
4.492e-04
4.213e-04
4.154e-04
4.549e-04
4.608e-04
4.339e-04
4.275e-04
4.670e-04
4.408e-04
3.880e-04
3.943e-04
3.683e-04
3.615e-04
4.009e-04
4.079e-04
3.827e-04
3.753e-04
4.153e-04
3.906e-04
3.360e-04
3.432e-04
3.191e-04
3.115e-04
3.507e-04
3.585e-04
3.353e-04
3.271e-04
3.666e-04
3.436e-04
2.882e-04
2.963e-04
3.046e-04
3.131e-04
3.215e-04
1.666e-04
1.814e-04
1.650e-04
1.794e-04
1.972e-04
1.953e-04
1.932e-04
1.772e-04
1.627e-04
2.137e-04
2.121e-04
2.311e-04
2.298e-04
2.282e-04
2.103e-04
2.493e-04
2.483e-04
2.684e-04
2.675e-04
2.663e-04
2.469e-04
2.881e-04
2.874e-04
2.865e-04
1.601e-04
1.748e-04
1.911e-04
1.888e-04
1.722e-04
1.572e-04
2.084e-04
2.265e-04
2.246e-04
2.064e-04
2.454e-04
2.650e-04
2.635e-04
2.437e-04
2.854e-04
2.842e-04
1.540e-04
1.696e-04
1.866e-04
2.043e-04
2.228e-04
2.421e-04
2.621e-04
2.829e-04
5.259e-04
5.267e-04
5.531e-04
5.543e-04
5.553e-04
5.274e-04
5.808e-04
5.822e-04
6.087e-04
6.103e-04
6.118e-04
5.835e-04
6.369e-04
6.386e-04
6.653e-04
6.670e-04
6.686e-04
6.401e-04
6.940e-04
6.956e-04
7.231e-04
7.245e-04
7.257e-04
6.971e-04
5.280e-04
5.561e-04
5.564e-04
5.284e-04
5.844e-04
6.126e-04
6.129e-04
5.846e-04
6.410e-04
6.696e-04
6.702e-04
6.414e-04
6.982e-04
7.269e-04
7.280e-04
6.990e-04
5.286e-04
5.563e-04
5.843e-04
6.126e-04
6.413e-04
6.704e-04
6.997e-04
7.293e-04
1.461e-04
1.626e-04
1.808e-04
1.773e-04
1.584e-04
1.416e-04
1.996e-04
2.189e-04
2.167e-04
1.968e-04
2.388e-04
2.591e-04
2.571e-04
2.368e-04
2.798e-04
2.776e-04
1.371e-04
1.543e-04
1.737e-04
1.700e-04
1.502e-04
1.326e-04
1.938e-04
2.140e-04
2.107e-04
1.903e-04
2.343e-04
2.546e-04
2.515e-04
2.311e-04
2.749e-04
2.719e-04
1.281e-04
1.460e-04
1.660e-04
1.617e-04
1.418e-04
1.237e-04
1.863e-04
2.068e-04
2.023e-04
1.819e-04
2.272e-04
2.478e-04
2.438e-04
2.229e-04
2.686e-04
2.652e-04
1.195e-04
1.376e-04
1.573e-04
1.531e-04
1.334e-04
1.152e-04
1.774e-04
1.978e-04
1.937e-04
1.732e-04
2.186e-04
2.399e-04
2.364e-04
2.148e-04
2.618e-04
2.585e-04
3.094e-04
3.345e-04
3.373e-04
3.127e-04
3.599e-04
3.859e-04
3.879e-04
3.623e-04
4.123e-04
4.391e-04
4.405e-04
4.139e-04
4.666e-04
4.678e-04
3.157e-04
3.399e-04
3.424e-04
3.188e-04
3.645e-04
3.897e-04
3.916e-04
3.667e-04
4.155e-04
4.419e-04
4.434e-04
4.172e-04
4.690e-04
4.702e-04
3.219e-04
3.450e-04
3.690e-04
3.936e-04
4.190e-04
4.449e-04
4.715e-04
2.774e-04
3.020e-04
3.280e-04
3.246e-04
2.979e-04
2.731e-04
3.546e-04
3.814e-04
3.792e-04
3.518e-04
4.086e-04
4.359e-04
4.340e-04
4.066e-04
4.634e-04
4.912e-04
4.887e-04
4.612e-04
2.686e-04
2.938e-04
3.210e-04
3.171e-04
2.895e-04
2.640e-04
3.487e-04
3.765e-04
3.732e-04
3.452e-04
4.041e-04
4.315e-04
4.284e-04
4.009e-04
4.587e-04
4.860e-04
4.832e-04
4.557e-04
2.593e-04
2.851e-04
3.128e-04
3.083e-04
2.807e-04
2.547e-04
3.410e-04
3.690e-04
3.642e-04
3.362e-04
3.970e-04
4.247e-04
4.205e-04
3.923e-04
4.524e-04
4.803e-04
4.773e-04
4.487e-04
2.503e-04
2.763e-04
3.035e-04
2.987e-04
2.718e-04
2.459e-04
3.312e-04
3.592e-04
3.543e-04
3.262e-04
3.875e-04
4.160e-04
4.118e-04
3.828e-04
4.449e-04
4.743e-04
4.711e-04
4.412e-04
5.281e-04
5.555e-04
5.550e-04
5.274e-04
5.836e-04
6.122e-04
6.121e-04
5.832e-04
6.414e-04
6.710e-04
6.714e-04
6.415e-04
7.012e-04
7.319e-04
7.329e-04
7.019e-04
5.267e-04
5.544e-04
5.539e-04
5.259e-04
5.830e-04
6.121e-04
6.121e-04
5.827e-04
6.417e-04
6.718e-04
6.722e-04
6.419e-04
7.026e-04
7.336e-04
7.341e-04
7.031e-04
5.251e-04
5.534e-04
5.529e-04
5.242e-04
5.825e-04
6.120e-04
6.119e-04
5.822e-04
6.421e-04
6.726e-04
6.727e-04
6.421e-04
7.035e-04
7.345e-04
7.348e-04
7.037e-04
5.232e-04
5.523e-04
5.512e-04
5.219e-04
5.818e-04
6.117e-04
6.111e-04
5.810e-04
6.420e-04
6.727e-04
6.724e-04
6.416e-04
7.038e-04
7.350e-04
7.352e-04
7.036e-04
5.167e-05
6.195e-05
5.595e-05
6.614e-05
7.372e-05
7.714e-05
7.946e-05
6.932e-05
5.988e-05
8.575e-05
8.808e-05
9.801e-05
9.930e-05
9.999e-05
8.952e-05
1.105e-04
1.110e-04
1.233e-04
1.233e-04
1.231e-04
1.111e-04
1.364e-04
1.365e-04
1.363e-04
6.370e-05
7.198e-05
8.111e-05
8.262e-05
7.457e-05
6.748e-05
9.044e-05
1.003e-04
1.007e-04
9.128e-05
1.111e-04
1.229e-04
1.228e-04
1.112e-04
1.361e-04
1.358e-04
7.127e-05
7.746e-05
8.449e-05
8.707e-05
8.104e-05
7.529e-05
9.247e-05
1.015e-04
1.029e-04
9.434e-05
1.117e-04
1.231e-04
1.238e-04
1.127e-04
1.358e-04
1.361e-04
1.584e-04
1.586e-04
1.575e-04
1.524e-04
1.520e-04
1.507e-04
1.563e-04
1.547e-04
1.521e-04
1.524e-04
1.526e-04
1.513e-04
1.433e-04
1.454e-04
1.472e-04
1.420e-04
1.388e-04
1.360e-04
1.485e-04
1.494e-04
1.467e-04
1.446e-04
1.499e-04
1.486e-04
1.284e-04
1.323e-04
1.368e-04
1.315e-04
1.260e-04
1.205e-04
1.406e-04
1.439e-04
1.412e-04
1.366e-04
1.470e-04
1.453e-04
1.646e-04
1.643e-04
1.564e-04
1.569e-04
1.638e-04
1.570e-04
1.506e-04
1.496e-04
1.483e-04
1.628e-04
1.570e-04
1.613e-04
1.564e-04
1.518e-04
1.514e-04
1.591e-04
1.554e-04
1.564e-04
1.539e-04
1.516e-04
1.519e-04
1.530e-04
1.518e-04
1.508e-04
1.402e-04
1.422e-04
1.441e-04
1.375e-04
1.347e-04
1.320e-04
1.458e-04
1.472e-04
1.425e-04
1.401e-04
1.484e-04
1.493e-04
1.469e-04
1.448e-04
1.499e-04
1.488e-04
1.238e-04
1.272e-04
1.309e-04
1.343e-04
1.377e-04
1.411e-04
1.444e-04
1.477e-04
2.618e-04
2.581e-04
2.382e-04
2.419e-04
2.537e-04
2.486e-04
2.284e-04
2.337e-04
2.427e-04
2.360e-04
2.155e-04
2.223e-04
2.230e-04
2.192e-04
2.013e-04
2.052e-04
2.146e-04
2.093e-04
1.913e-04
1.966e-04
2.032e-04
1.964e-04
1.787e-04
1.854e-04
1.885e-04
1.845e-04
1.689e-04
1.730e-04
1.799e-04
1.747e-04
1.592e-04
1.643e-04
1.689e-04
1.623e-04
1.471e-04
1.535e-04
1.587e-04
1.545e-04
1.499e-04
1.448e-04
1.393e-04
1.333e-04
2.821e-04
2.814e-04
2.806e-04
2.601e-04
2.608e-04
2.615e-04
2.793e-04
2.774e-04
2.571e-04
2.589e-04
2.750e-04
2.721e-04
2.520e-04
2.548e-04
2.687e-04
2.487e-04
2.421e-04
2.414e-04
2.407e-04
2.225e-04
2.233e-04
2.239e-04
2.395e-04
2.378e-04
2.197e-04
2.213e-04
2.356e-04
2.329e-04
2.151e-04
2.176e-04
2.298e-04
2.121e-04
2.071e-04
2.064e-04
2.057e-04
1.903e-04
1.910e-04
1.917e-04
2.045e-04
2.029e-04
1.876e-04
1.892e-04
2.010e-04
1.985e-04
1.833e-04
1.857e-04
1.955e-04
1.803e-04
1.778e-04
1.772e-04
1.765e-04
1.755e-04
1.739e-04
1.719e-04
1.693e-04
1.662e-04
2.446e-04
2.531e-04
2.328e-04
2.241e-04
2.617e-04
2.704e-04
2.505e-04
2.416e-04
2.792e-04
2.594e-04
2.051e-04
2.138e-04
1.958e-04
1.872e-04
2.226e-04
2.314e-04
2.134e-04
2.046e-04
2.403e-04
2.223e-04
1.707e-04
1.792e-04
1.636e-04
1.552e-04
1.878e-04
1.965e-04
1.807e-04
1.721e-04
2.051e-04
1.890e-04
1.410e-04
1.491e-04
1.574e-04
1.656e-04
1.737e-04
1.415e-04
1.603e-04
1.667e-04
1.488e-04
1.794e-04
1.991e-04
2.040e-04
1.850e-04
2.194e-04
2.405e-04
2.445e-04
2.238e-04
2.626e-04
2.665e-04
1.557e-04
1.726e-04
1.785e-04
1.626e-04
1.902e-04
2.087e-04
2.133e-04
1.954e-04
2.280e-04
2.485e-04
2.525e-04
2.324e-04
2.702e-04
2.740e-04
1.699e-04
1.848e-04
2.010e-04
2.184e-04
2.370e-04
2.568e-04
2.779e-04
3.033e-04
3.048e-04
2.939e-04
2.958e-04
3.060e-04
2.974e-04
2.890e-04
2.868e-04
2.844e-04
3.066e-04
2.988e-04
3.068e-04
2.997e-04
2.927e-04
2.910e-04
3.066e-04
3.003e-04
3.058e-04
3.005e-04
2.951e-04
2.941e-04
3.048e-04
3.003e-04
2.958e-04
2.749e-04
2.778e-04
2.806e-04
2.721e-04
2.687e-04
2.653e-04
2.833e-04
2.857e-04
2.786e-04
2.754e-04
2.878e-04
2.897e-04
2.843e-04
2.815e-04
2.914e-04
2.868e-04
2.557e-04
2.596e-04
2.636e-04
2.675e-04
2.714e-04
2.752e-04
2.788e-04
2.822e-04
7.146e-04
6.852e-04
7.132e-04
6.836e-04
6.542e-04
6.558e-04
7.116e-04
6.820e-04
7.099e-04
6.804e-04
6.507e-04
6.525e-04
7.081e-04
6.786e-04
7.064e-04
6.769e-04
6.469e-04
6.488e-04
6.266e-04
6.248e-04
5.955e-04
5.974e-04
6.229e-04
6.210e-04
5.912e-04
5.934e-04
6.189e-04
6.167e-04
5.864e-04
5.889e-04
5.684e-04
5.663e-04
5.373e-04
5.395e-04
5.640e-04
5.616e-04
5.322e-04
5.348e-04
5.590e-04
5.561e-04
5.260e-04
5.293e-04
5.110e-04
5.086e-04
5.060e-04
5.030e-04
4.999e-04
4.963e-04
7.279e-04
7.268e-04
6.993e-04
6.981e-04
7.254e-04
6.968e-04
6.681e-04
6.694e-04
6.704e-04
7.239e-04
6.954e-04
7.222e-04
6.938e-04
6.651e-04
6.667e-04
7.205e-04
6.920e-04
7.188e-04
6.902e-04
6.613e-04
6.633e-04
7.172e-04
6.884e-04
6.593e-04
6.413e-04
6.404e-04
6.393e-04
6.104e-04
6.115e-04
6.124e-04
6.379e-04
6.362e-04
6.073e-04
6.089e-04
6.343e-04
6.323e-04
6.034e-04
6.054e-04
6.303e-04
6.013e-04
5.836e-04
5.827e-04
5.816e-04
5.530e-04
5.542e-04
5.551e-04
5.801e-04
5.784e-04
5.498e-04
5.515e-04
5.766e-04
5.746e-04
5.460e-04
5.480e-04
5.725e-04
5.439e-04
5.271e-04
5.260e-04
5.247e-04
5.233e-04
5.216e-04
5.198e-04
5.177e-04
5.156e-04
5.011e-04
5.018e-04
4.734e-04
4.741e-04
5.023e-04
4.748e-04
4.476e-04
4.468e-04
4.462e-04
5.026e-04
4.753e-04
5.025e-04
4.754e-04
4.485e-04
4.482e-04
5.022e-04
4.752e-04
5.016e-04
4.747e-04
4.481e-04
4.485e-04
5.006e-04
4.738e-04
4.474e-04
4.200e-04
4.205e-04
4.213e-04
3.960e-04
3.952e-04
3.947e-04
4.219e-04
4.224e-04
3.971e-04
3.966e-04
4.225e-04
4.223e-04
3.972e-04
3.973e-04
4.217e-04
3.966e-04
3.703e-04
3.709e-04
3.717e-04
3.485e-04
3.477e-04
3.469e-04
3.724e-04
3.728e-04
3.496e-04
3.492e-04
3.730e-04
3.729e-04
3.495e-04
3.497e-04
3.723e-04
3.489e-04
3.247e-04
3.257e-04
3.267e-04
3.273e-04
3.276e-04
3.275e-04
3.271e-04
3.263e-04
7.202e-04
7.217e-04
7.174e-04
7.190e-04
7.204e-04
7.231e-04
7.243e-04
7.218e-04
7.231e-04
7.256e-04
7.268e-04
7.244e-04
7.146e-04
7.162e-04
7.119e-04
7.135e-04
7.152e-04
7.178e-04
7.192e-04
7.167e-04
7.181e-04
7.206e-04
7.219e-04
7.195e-04
7.092e-04
7.108e-04
7.125e-04
7.141e-04
7.156e-04
7.170e-04
7.294e-04
7.270e-04
7.282e-04
7.305e-04
7.314e-04
7.293e-04
7.302e-04
7.321e-04
7.328e-04
7.310e-04
7.317e-04
7.333e-04
7.337e-04
7.324e-04
7.328e-04
7.340e-04
7.246e-04
7.222e-04
7.236e-04
7.259e-04
7.271e-04
7.250e-04
7.263e-04
7.283e-04
7.293e-04
7.275e-04
7.287e-04
7.302e-04
7.310e-04
7.296e-04
7.306e-04
7.317e-04
7.197e-04
7.212e-04
7.228e-04
7.243e-04
7.258e-04
7.271e-04
7.282e-04
7.293e-04
6.795e-04
6.821e-04
6.523e-04
6.496e-04
6.849e-04
6.877e-04
6.583e-04
6.552e-04
6.908e-04
6.617e-04
6.196e-04
6.226e-04
5.929e-04
5.896e-04
6.257e-04
6.292e-04
6.002e-04
5.964e-04
6.329e-04
6.043e-04
5.597e-04
5.635e-04
5.344e-04
5.302e-04
5.675e-04
5.716e-04
5.434e-04
5.389e-04
5.760e-04
5.482e-04
5.010e-04
5.058e-04
5.108e-04
5.158e-04
5.209e-04
5.262e-04
5.254e-04
5.539e-04
5.545e-04
5.246e-04
5.237e-04
5.526e-04
5.532e-04
5.228e-04
5.519e-04
5.832e-04
5.828e-04
6.120e-04
6.122e-04
5.823e-04
5.818e-04
6.114e-04
6.117e-04
5.813e-04
6.112e-04
6.415e-04
6.415e-04
6.711e-04
6.708e-04
6.414e-04
6.414e-04
6.716e-04
6.714e-04
6.414e-04
6.719e-04
7.002e-04
7.009e-04
7.015e-04
7.021e-04
7.028e-04
4.962e-04
4.973e-04
4.982e-04
4.941e-04
4.928e-04
4.913e-04
4.989e-04
4.994e-04
4.963e-04
4.953e-04
4.996e-04
4.995e-04
4.975e-04
4.970e-04
4.991e-04
4.976e-04
4.863e-04
4.882e-04
4.900e-04
4.859e-04
4.836e-04
4.813e-04
4.917e-04
4.931e-04
4.899e-04
4.880e-04
4.944e-04
4.954e-04
4.932e-04
4.917e-04
4.961e-04
4.945e-04
4.762e-04
4.790e-04
4.817e-04
4.842e-04
4.866e-04
4.889e-04
4.910e-04
4.929e-04
7.830e-05
8.737e-05
7.542e-05
8.430e-05
9.756e-05
9.475e-05
9.175e-05
8.097e-05
7.184e-05
1.081e-04
1.058e-04
1.192e-04
1.172e-04
1.148e-04
1.032e-04
1.306e-04
1.288e-04
1.423e-04
1.405e-04
1.382e-04
1.265e-04
1.543e-04
1.524e-04
1.500e-04
6.771e-05
7.719e-05
8.826e-05
8.399e-05
7.277e-05
6.305e-05
9.985e-05
1.116e-04
1.074e-04
9.560e-05
1.233e-04
1.351e-04
1.313e-04
1.192e-04
1.471e-04
1.438e-04
5.782e-05
6.769e-05
7.900e-05
9.066e-05
1.025e-04
1.147e-04
1.272e-04
1.402e-04
4.589e-05
5.658e-05
6.900e-05
6.415e-05
5.105e-05
4.004e-05
8.162e-05
9.433e-05
9.055e-05
7.741e-05
1.071e-04
1.198e-04
1.161e-04
1.035e-04
1.326e-04
1.285e-04
3.433e-05
4.567e-05
5.930e-05
5.427e-05
4.031e-05
2.871e-05
7.301e-05
8.643e-05
8.174e-05
6.821e-05
9.940e-05
1.119e-04
1.072e-04
9.474e-05
1.240e-04
1.194e-04
2.315e-05
3.488e-05
4.895e-05
4.334e-05
2.934e-05
1.758e-05
6.291e-05
7.645e-05
7.069e-05
5.719e-05
8.951e-05
1.022e-04
9.687e-05
8.388e-05
1.147e-04
1.099e-04
1.197e-05
2.368e-05
3.759e-05
3.190e-05
1.780e-05
5.850e-06
5.133e-05
6.487e-05
5.944e-05
4.574e-05
7.828e-05
9.167e-05
8.681e-05
7.309e-05
1.052e-04
1.006e-04
1.100e-04
1.283e-04
1.483e-04
1.434e-04
1.229e-04
1.044e-04
1.688e-04
1.897e-04
1.858e-04
1.645e-04
2.111e-04
2.328e-04
2.290e-04
2.074e-04
2.548e-04
2.508e-04
9.873e-05
1.175e-04
1.385e-04
1.333e-04
1.121e-04
9.316e-05
1.600e-04
1.816e-04
1.768e-04
1.550e-04
2.033e-04
2.249e-04
2.201e-04
1.985e-04
2.464e-04
2.417e-04
8.772e-05
1.068e-04
1.279e-04
1.223e-04
1.015e-04
8.248e-05
1.495e-04
1.712e-04
1.651e-04
1.436e-04
1.930e-04
2.148e-04
2.091e-04
1.870e-04
2.367e-04
2.316e-04
7.762e-05
9.638e-05
1.166e-04
1.109e-04
9.132e-05
7.310e-05
1.374e-04
1.588e-04
1.526e-04
1.313e-04
1.807e-04
2.033e-04
1.977e-04
1.748e-04
2.264e-04
2.215e-04
2.812e-04
3.080e-04
3.165e-04
2.902e-04
3.352e-04
3.628e-04
3.704e-04
3.433e-04
3.906e-04
4.187e-04
4.250e-04
3.977e-04
4.472e-04
4.529e-04
2.989e-04
3.246e-04
3.322e-04
3.075e-04
3.508e-04
3.773e-04
3.836e-04
3.577e-04
4.040e-04
4.309e-04
4.363e-04
4.098e-04
4.582e-04
4.634e-04
3.160e-04
3.396e-04
3.642e-04
3.893e-04
4.151e-04
4.414e-04
4.684e-04
2.406e-04
2.662e-04
2.930e-04
2.870e-04
2.602e-04
2.347e-04
3.206e-04
3.489e-04
3.433e-04
3.147e-04
3.777e-04
4.071e-04
4.023e-04
3.725e-04
4.369e-04
4.669e-04
4.624e-04
4.324e-04
2.284e-04
2.540e-04
2.809e-04
2.747e-04
2.476e-04
2.218e-04
3.088e-04
3.376e-04
3.319e-04
3.029e-04
3.672e-04
3.973e-04
3.920e-04
3.617e-04
4.276e-04
4.577e-04
4.528e-04
4.225e-04
2.149e-04
2.411e-04
2.686e-04
2.625e-04
2.346e-04
2.079e-04
2.970e-04
3.262e-04
3.205e-04
2.911e-04
3.561e-04
3.866e-04
3.811e-04
3.505e-04
4.173e-04
4.477e-04
4.426e-04
4.119e-04
2.010e-04
2.283e-04
2.565e-04
2.505e-04
2.220e-04
1.943e-04
2.854e-04
3.149e-04
3.095e-04
2.798e-04
3.450e-04
3.756e-04
3.705e-04
3.398e-04
4.066e-04
4.377e-04
4.332e-04
4.015e-04
5.199e-04
5.494e-04
5.473e-04
5.174e-04
5.795e-04
6.099e-04
6.085e-04
5.777e-04
6.407e-04
6.717e-04
6.708e-04
6.395e-04
7.032e-04
7.351e-04
7.344e-04
7.025e-04
5.149e-04
5.451e-04
5.429e-04
5.124e-04
5.759e-04
6.070e-04
6.054e-04
5.740e-04
6.382e-04
6.698e-04
6.686e-04
6.369e-04
7.016e-04
7.333e-04
7.317e-04
7.004e-04
5.099e-04
5.408e-04
5.387e-04
5.074e-04
5.722e-04
6.038e-04
6.021e-04
5.703e-04
6.354e-04
6.672e-04
6.656e-04
6.339e-04
6.989e-04
7.300e-04
7.280e-04
6.971e-04
5.049e-04
5.365e-04
5.341e-04
5.022e-04
5.684e-04
6.003e-04
5.982e-04
5.661e-04
6.321e-04
6.638e-04
6.618e-04
6.301e-04
6.952e-04
7.261e-04
7.243e-04
6.932e-04
4.934e-06
1.161e-05