# vtk DataFile Version 3.0
vtk output
ASCII
DATASET UNSTRUCTURED_GRID
POINTS 242 double
0.000000e+00 0.000000e+00 0.000000e+00
0.000000e+00 2.500000e-02 0.000000e+00
5.000000e-02 0.000000e+00 0.000000e+00
5.000000e-02 2.500000e-02 0.000000e+00
0.000000e+00 5.000000e-02 0.000000e+00
5.000000e-02 5.000000e-02 0.000000e+00
1.000000e-01 5.000000e-02 0.000000e+00
1.000000e-01 2.500000e-02 0.000000e+00
1.000000e-01 0.000000e+00 0.000000e+00
0.000000e+00 7.500000e-02 0.000000e+00
5.000000e-02 7.500000e-02 0.000000e+00
0.000000e+00 1.000000e-01 0.000000e+00
5.000000e-02 1.000000e-01 0.000000e+00
1.000000e-01 1.000000e-01 0.000000e+00
1.000000e-01 7.500000e-02 0.000000e+00
0.000000e+00 1.250000e-01 0.000000e+00
5.000000e-02 1.250000e-01 0.000000e+00
0.000000e+00 1.500000e-01 0.000000e+00
5.000000e-02 1.500000e-01 0.000000e+00
1.000000e-01 1.500000e-01 0.000000e+00
1.000000e-01 1.250000e-01 0.000000e+00
0.000000e+00 1.750000e-01 0.000000e+00
5.000000e-02 1.750000e-01 0.000000e+00
0.000000e+00 2.000000e-01 0.000000e+00
5.000000e-02 2.000000e-01 0.000000e+00
1.000000e-01 2.000000e-01 0.000000e+00
1.000000e-01 1.750000e-01 0.000000e+00
0.000000e+00 2.250000e-01 0.000000e+00
5.000000e-02 2.250000e-01 0.000000e+00
0.000000e+00 2.500000e-01 0.000000e+00
5.000000e-02 2.500000e-01 0.000000e+00
1.000000e-01 2.500000e-01 0.000000e+00
1.000000e-01 2.250000e-01 0.000000e+00
1.500000e-01 0.000000e+00 0.000000e+00
1.500000e-01 2.500000e-02 0.000000e+00
1.500000e-01 5.000000e-02 0.000000e+00
2.000000e-01 5.000000e-02 0.000000e+00
2.000000e-01 2.500000e-02 0.000000e+00
2.000000e-01 0.000000e+00 0.000000e+00
1.500000e-01 7.500000e-02 0.000000e+00
1.500000e-01 1.000000e-01 0.000000e+00
2.000000e-01 1.000000e-01 0.000000e+00
2.000000e-01 7.500000e-02 0.000000e+00
1.500000e-01 1.250000e-01 0.000000e+00
1.500000e-01 1.500000e-01 0.000000e+00
2.000000e-01 1.500000e-01 0.000000e+00
2.000000e-01 1.250000e-01 0.000000e+00
1.500000e-01 1.750000e-01 0.000000e+00
1.500000e-01 2.000000e-01 0.000000e+00
2.000000e-01 2.000000e-01 0.000000e+00
2.000000e-01 1.750000e-01 0.000000e+00
1.500000e-01 2.250000e-01 0.000000e+00
1.500000e-01 2.500000e-01 0.000000e+00
2.000000e-01 2.500000e-01 0.000000e+00
2.000000e-01 2.250000e-01 0.000000e+00
2.500000e-01 0.000000e+00 0.000000e+00
2.500000e-01 2.500000e-02 0.000000e+00
2.500000e-01 5.000000e-02 0.000000e+00
3.000000e-01 5.000000e-02 0.000000e+00
3.000000e-01 2.500000e-02 0.000000e+00
3.000000e-01 0.000000e+00 0.000000e+00
2.500000e-01 7.500000e-02 0.000000e+00
2.500000e-01 1.000000e-01 0.000000e+00
3.000000e-01 1.000000e-01 0.000000e+00
3.000000e-01 7.500000e-02 0.000000e+00
2.500000e-01 1.250000e-01 0.000000e+00
2.500000e-01 1.500000e-01 0.000000e+00
3.000000e-01 1.500000e-01 0.000000e+00
3.000000e-01 1.250000e-01 0.000000e+00
2.500000e-01 1.750000e-01 0.000000e+00
2.500000e-01 2.000000e-01 0.000000e+00
3.000000e-01 2.000000e-01 0.000000e+00
3.000000e-01 1.750000e-01 0.000000e+00
2.500000e-01 2.250000e-01 0.000000e+00
2.500000e-01 2.500000e-01 0.000000e+00
3.000000e-01 2.500000e-01 0.000000e+00
3.000000e-01 2.250000e-01 0.000000e+00
3.500000e-01 0.000000e+00 0.000000e+00
3.500000e-01 2.500000e-02 0.000000e+00
3.500000e-01 5.000000e-02 0.000000e+00
4.000000e-01 5.000000e-02 0.000000e+00
4.000000e-01 2.500000e-02 0.000000e+00
4.000000e-01 0.000000e+00 0.000000e+00
3.500000e-01 7.500000e-02 0.000000e+00
3.500000e-01 1.000000e-01 0.000000e+00
4.000000e-01 1.000000e-01 0.000000e+00
4.000000e-01 7.500000e-02 0.000000e+00
3.500000e-01 1.250000e-01 0.000000e+00
3.500000e-01 1.500000e-01 0.000000e+00
4.000000e-01 1.500000e-01 0.000000e+00
4.000000e-01 1.250000e-01 0.000000e+00
3.500000e-01 1.750000e-01 0.000000e+00
3.500000e-01 2.000000e-01 0.000000e+00
4.000000e-01 2.000000e-01 0.000000e+00
4.000000e-01 1.750000e-01 0.000000e+00
3.500000e-01 2.250000e-01 0.000000e+00
3.500000e-01 2.500000e-01 0.000000e+00
4.000000e-01 2.500000e-01 0.000000e+00
4.000000e-01 2.250000e-01 0.000000e+00
4.500000e-01 0.000000e+00 0.000000e+00
4.500000e-01 2.500000e-02 0.000000e+00
4.500000e-01 5.000000e-02 0.000000e+00
5.000000e-01 5.000000e-02 0.000000e+00
5.000000e-01 2.500000e-02 0.000000e+00
5.000000e-01 0.000000e+00 0.000000e+00
4.500000e-01 7.500000e-02 0.000000e+00
4.500000e-01 1.000000e-01 0.000000e+00
5.000000e-01 1.000000e-01 0.000000e+00
5.000000e-01 7.500000e-02 0.000000e+00
4.500000e-01 1.250000e-01 0.000000e+00
4.500000e-01 1.500000e-01 0.000000e+00
5.000000e-01 1.500000e-01 0.000000e+00
5.000000e-01 1.250000e-01 0.000000e+00
4.500000e-01 1.750000e-01 0.000000e+00
4.500000e-01 2.000000e-01 0.000000e+00
5.000000e-01 2.000000e-01 0.000000e+00
5.000000e-01 1.750000e-01 0.000000e+00
4.500000e-01 2.250000e-01 0.000000e+00
4.500000e-01 2.500000e-01 0.000000e+00
5.000000e-01 2.500000e-01 0.000000e+00
5.000000e-01 2.250000e-01 0.000000e+00
0.000000e+00 1.250000e-01 0.000000e+00
0.000000e+00 1.250000e-01 5.000000e-03
5.000000e-02 1.250000e-01 0.000000e+00
5.000000e-02 1.250000e-01 5.000000e-03
0.000000e+00 1.250000e-01 1.000000e-02
5.000000e-02 1.250000e-01 1.000000e-02
1.000000e-01 1.250000e-01 1.000000e-02
1.000000e-01 1.250000e-01 5.000000e-03
1.000000e-01 1.250000e-01 0.000000e+00
0.000000e+00 1.250000e-01 1.500000e-02
5.000000e-02 1.250000e-01 1.500000e-02
0.000000e+00 1.250000e-01 2.000000e-02
5.000000e-02 1.250000e-01 2.000000e-02
1.000000e-01 1.250000e-01 2.000000e-02
1.000000e-01 1.250000e-01 1.500000e-02
0.000000e+00 1.250000e-01 2.500000e-02
5.000000e-02 1.250000e-01 2.500000e-02
0.000000e+00 1.250000e-01 3.000000e-02
5.000000e-02 1.250000e-01 3.000000e-02
1.000000e-01 1.250000e-01 3.000000e-02
1.000000e-01 1.250000e-01 2.500000e-02
0.000000e+00 1.250000e-01 3.500000e-02
5.000000e-02 1.250000e-01 3.500000e-02
0.000000e+00 1.250000e-01 4.000000e-02
5.000000e-02 1.250000e-01 4.000000e-02
1.000000e-01 1.250000e-01 4.000000e-02
1.000000e-01 1.250000e-01 3.500000e-02
0.000000e+00 1.250000e-01 4.500000e-02
5.000000e-02 1.250000e-01 4.500000e-02
0.000000e+00 1.250000e-01 5.000000e-02
5.000000e-02 1.250000e-01 5.000000e-02
1.000000e-01 1.250000e-01 5.000000e-02
1.000000e-01 1.250000e-01 4.500000e-02
1.500000e-01 1.250000e-01 0.000000e+00
1.500000e-01 1.250000e-01 5.000000e-03
1.500000e-01 1.250000e-01 1.000000e-02
2.000000e-01 1.250000e-01 1.000000e-02
2.000000e-01 1.250000e-01 5.000000e-03
2.000000e-01 1.250000e-01 0.000000e+00
1.500000e-01 1.250000e-01 1.500000e-02
1.500000e-01 1.250000e-01 2.000000e-02
2.000000e-01 1.250000e-01 2.000000e-02
2.000000e-01 1.250000e-01 1.500000e-02
1.500000e-01 1.250000e-01 2.500000e-02
1.500000e-01 1.250000e-01 3.000000e-02
2.000000e-01 1.250000e-01 3.000000e-02
2.000000e-01 1.250000e-01 2.500000e-02
1.500000e-01 1.250000e-01 3.500000e-02
1.500000e-01 1.250000e-01 4.000000e-02
2.000000e-01 1.250000e-01 4.000000e-02
2.000000e-01 1.250000e-01 3.500000e-02
1.500000e-01 1.250000e-01 4.500000e-02
1.500000e-01 1.250000e-01 5.000000e-02
2.000000e-01 1.250000e-01 5.000000e-02
2.000000e-01 1.250000e-01 4.500000e-02
2.500000e-01 1.250000e-01 0.000000e+00
2.500000e-01 1.250000e-01 5.000000e-03
2.500000e-01 1.250000e-01 1.000000e-02
3.000000e-01 1.250000e-01 1.000000e-02
3.000000e-01 1.250000e-01 5.000000e-03
3.000000e-01 1.250000e-01 0.000000e+00
2.500000e-01 1.250000e-01 1.500000e-02
2.500000e-01 1.250000e-01 2.000000e-02
3.000000e-01 1.250000e-01 2.000000e-02
3.000000e-01 1.250000e-01 1.500000e-02
2.500000e-01 1.250000e-01 2.500000e-02
2.500000e-01 1.250000e-01 3.000000e-02
3.000000e-01 1.250000e-01 3.000000e-02
3.000000e-01 1.250000e-01 2.500000e-02
2.500000e-01 1.250000e-01 3.500000e-02
2.500000e-01 1.250000e-01 4.000000e-02
3.000000e-01 1.250000e-01 4.000000e-02
3.000000e-01 1.250000e-01 3.500000e-02
2.500000e-01 1.250000e-01 4.500000e-02
2.500000e-01 1.250000e-01 5.000000e-02
3.000000e-01 1.250000e-01 5.000000e-02
3.000000e-01 1.250000e-01 4.500000e-02
3.500000e-01 1.250000e-01 0.000000e+00
3.500000e-01 1.250000e-01 5.000000e-03
3.500000e-01 1.250000e-01 1.000000e-02
4.000000e-01 1.250000e-01 1.000000e-02
4.000000e-01 1.250000e-01 5.000000e-03
4.000000e-01 1.250000e-01 0.000000e+00
3.500000e-01 1.250000e-01 1.500000e-02
3.500000e-01 1.250000e-01 2.000000e-02
4.000000e-01 1.250000e-01 2.000000e-02
4.000000e-01 1.250000e-01 1.500000e-02
3.500000e-01 1.250000e-01 2.500000e-02
3.500000e-01 1.250000e-01 3.000000e-02
4.000000e-01 1.250000e-01 3.000000e-02
4.000000e-01 1.250000e-01 2.500000e-02
3.500000e-01 1.250000e-01 3.500000e-02
3.500000e-01 1.250000e-01 4.000000e-02
4.000000e-01 1.250000e-01 4.000000e-02
4.000000e-01 1.250000e-01 3.500000e-02
3.500000e-01 1.250000e-01 4.500000e-02
3.500000e-01 1.250000e-01 5.000000e-02
4.000000e-01 1.250000e-01 5.000000e-02
4.000000e-01 1.250000e-01 4.500000e-02
4.500000e-01 1.250000e-01 0.000000e+00
4.500000e-01 1.250000e-01 5.000000e-03
4.500000e-01 1.250000e-01 1.000000e-02
5.000000e-01 1.250000e-01 1.000000e-02
5.000000e-01 1.250000e-01 5.000000e-03
5.000000e-01 1.250000e-01 0.000000e+00
4.500000e-01 1.250000e-01 1.500000e-02
4.500000e-01 1.250000e-01 2.000000e-02
5.000000e-01 1.250000e-01 2.000000e-02
5.000000e-01 1.250000e-01 1.500000e-02
4.500000e-01 1.250000e-01 2.500000e-02
4.500000e-01 1.250000e-01 3.000000e-02
5.000000e-01 1.250000e-01 3.000000e-02
5.000000e-01 1.250000e-01 2.500000e-02
4.500000e-01 1.250000e-01 3.500000e-02
4.500000e-01 1.250000e-01 4.000000e-02
5.000000e-01 1.250000e-01 4.000000e-02
5.000000e-01 1.250000e-01 3.500000e-02
4.500000e-01 1.250000e-01 4.500000e-02
4.500000e-01 1.250000e-01 5.000000e-02
5.000000e-01 1.250000e-01 5.000000e-02
5.000000e-01 1.250000e-01 4.500000e-02

CELLS 200 1000
4 0 1 3 2 
4 4 5 3 1 
4 6 7 3 5 
4 8 2 3 7 
4 4 9 10 5 
4 11 12 10 9 
4 13 14 10 12 
4 6 5 10 14 
4 11 15 16 12 
4 17 18 16 15 
4 19 20 16 18 
4 13 12 16 20 
4 17 21 22 18 
4 23 24 22 21 
4 25 26 22 24 
4 19 18 22 26 
4 23 27 28 24 
4 29 30 28 27 
4 31 32 28 30 
4 25 24 28 32 
4 8 7 34 33 
4 6 35 34 7 
4 36 37 34 35 
4 38 33 34 37 
4 6 14 39 35 
4 13 40 39 14 
4 41 42 39 40 
4 36 35 39 42 
4 13 20 43 40 
4 19 44 43 20 
4 45 46 43 44 
4 41 40 43 46 
4 19 26 47 44 
4 25 48 47 26 
4 49 50 47 48 
4 45 44 47 50 
4 25 32 51 48 
4 31 52 51 32 
4 53 54 51 52 
4 49 48 51 54 
4 38 37 56 55 
4 36 57 56 37 
4 58 59 56 57 
4 60 55 56 59 
4 36 42 61 57 
4 41 62 61 42 
4 63 64 61 62 
4 58 57 61 64 
4 41 46 65 62 
4 45 66 65 46 
4 67 68 65 66 
4 63 62 65 68 
4 45 50 69 66 
4 49 70 69 50 
4 71 72 69 70 
4 67 66 69 72 
4 49 54 73 70 
4 53 74 73 54 
4 75 76 73 74 
4 71 70 73 76 
4 60 59 78 77 
4 58 79 78 59 
4 80 81 78 79 
4 82 77 78 81 
4 58 64 83 79 
4 63 84 83 64 
4 85 86 83 84 
4 80 79 83 86 
4 63 68 87 84 
4 67 88 87 68 
4 89 90 87 88 
4 85 84 87 90 
4 67 72 91 88 
4 71 92 91 72 
4 93 94 91 92 
4 89 88 91 94 
4 71 76 95 92 
4 75 96 95 76 
4 97 98 95 96 
4 93 92 95 98 
4 82 81 100 99 
4 80 101 100 81 
4 102 103 100 101 
4 104 99 100 103 
4 80 86 105 101 
4 85 106 105 86 
4 107 108 105 106 
4 102 101 105 108 
4 85 90 109 106 
4 89 110 109 90 
4 111 112 109 110 
4 107 106 109 112 
4 89 94 113 110 
4 93 114 113 94 
4 115 116 113 114 
4 111 110 113 116 
4 93 98 117 114 
4 97 118 117 98 
4 119 120 117 118 
4 115 114 117 120 
4 121 122 124 123 
4 125 126 124 122 
4 127 128 124 126 
4 129 123 124 128 
4 125 130 131 126 
4 132 133 131 130 
4 134 135 131 133 
4 127 126 131 135 
4 132 136 137 133 
4 138 139 137 136 
4 140 141 137 139 
4 134 133 137 141 
4 138 142 143 139 
4 144 145 143 142 
4 146 147 143 145 
4 140 139 143 147 
4 144 148 149 145 
4 150 151 149 148 
4 152 153 149 151 
4 146 145 149 153 
4 129 128 155 154 
4 127 156 155 128 
4 157 158 155 156 
4 159 154 155 158 
4 127 135 160 156 
4 134 161 160 135 
4 162 163 160 161 
4 157 156 160 163 
4 134 141 164 161 
4 140 165 164 141 
4 166 167 164 165 
4 162 161 164 167 
4 140 147 168 165 
4 146 169 168 147 
4 170 171 168 169 
4 166 165 168 171 
4 146 153 172 169 
4 152 173 172 153 
4 174 175 172 173 
4 170 169 172 175 
4 159 158 177 176 
4 157 178 177 158 
4 179 180 177 178 
4 181 176 177 180 
4 157 163 182 178 
4 162 183 182 163 
4 184 185 182 183 
4 179 178 182 185 
4 162 167 186 183 
4 166 187 186 167 
4 188 189 186 187 
4 184 183 186 189 
4 166 171 190 187 
4 170 191 190 171 
4 192 193 190 191 
4 188 187 190 193 
4 170 175 194 191 
4 174 195 194 175 
4 196 197 194 195 
4 192 191 194 197 
4 181 180 199 198 
4 179 200 199 180 
4 201 202 199 200 
4 203 198 199 202 
4 179 185 204 200 
4 184 205 204 185 
4 206 207 204 205 
4 201 200 204 207 
4 184 189 208 205 
4 188 209 208 189 
4 210 211 208 209 
4 206 205 208 211 
4 188 193 212 209 
4 192 213 212 193 
4 214 215 212 213 
4 210 209 212 215 
4 192 197 216 213 
4 196 217 216 197 
4 218 219 216 217 
4 214 213 216 219 
4 203 202 221 220 
4 201 222 221 202 
4 223 224 221 222 
4 225 220 221 224 
4 201 207 226 222 
4 206 227 226 207 
4 228 229 226 227 
4 223 222 226 229 
4 206 211 230 227 
4 210 231 230 211 
4 232 233 230 231 
4 228 227 230 233 
4 210 215 234 231 
4 214 235 234 215 
4 236 237 234 235 
4 232 231 234 237 
4 214 219 238 235 
4 218 239 238 219 
4 240 241 238 239 
4 236 235 238 241 

CELL_TYPES 200
9
9
9
9
9
9
9
9
9
9
9
9
9
9
9
9
9
9
9
9
9
9
9
9
9
9
9
9
9
9
9
9
9
9
9
9
9
9
9
9
9
9
9
9
9
9
9
9
9
9
9
9
9
9
9
9
9
9
9
9
9
9
9
9
9
9
9
9
9
9
9
9
9
9
9
9
9
9
9
9
9
9
9
9
9
9
9
9
9
9
9
9
9
9
9
9
9
9
9
9
9
9
9
9
9
9
9
9
9
9
9
9
9
9
9
9
9
9
9
9
9
9
9
9
9
9
9
9
9
9
9
9
9
9
9
9
9
9
9
9
9
9
9
9
9
9
9
9
9
9
9
9
9
9
9
9
9
9
9
9
9
9
9
9
9
9
9
9
9
9
9
9
9
9
9
9
9
9
9
9
9
9
9
9
9
9
9
9
9
9
9
9
9
9
9
9
9
9
9
9
POINT_DATA 242
SCALARS u double 1
LOOKUP_TABLE default
0.000e+00
0.000e+00
0.000e+00
0.000e+00
0.000e+00
0.000e+00
0.000e+00
0.000e+00
0.000e+00
0.000e+00
0.000e+00
0.000e+00
0.000e+00
0.000e+00
0.000e+00
0.000e+00
0.000e+00
0.000e+00
0.000e+00
0.000e+00
0.000e+00
0.000e+00
0.000e+00
0.000e+00
0.000e+00
0.000e+00
0.000e+00
0.000e+00
0.000e+00
0.000e+00
0.000e+00
0.000e+00
0.000e+00
0.000e+00
0.000e+00
0.000e+00
0.000e+00
0.000e+00
0.000e+00
0.000e+00
0.000e+00
0.000e+00
0.000e+00
0.000e+00
0.000e+00
0.000e+00
0.000e+00
0.000e+00
0.000e+00
0.000e+00
0.000e+00
0.000e+00
0.000e+00
0.000e+00
0.000e+00
0.000e+00
0.000e+00
0.000e+00
0.000e+00
0.000e+00
0.000e+00
0.000e+00
0.000e+00
0.000e+00
0.000e+00
0.000e+00
0.000e+00
0.000e+00
0.000e+00
0.000e+00
0.000e+00
0.000e+00
0.000e+00
0.000e+00
0.000e+00
0.000e+00
0.000e+00
0.000e+00
0.000e+00
0.000e+00
0.000e+00
0.000e+00
0.000e+00
0.000e+00
0.000e+00
0.000e+00
0.000e+00
0.000e+00
0.000e+00
0.000e+00
0.000e+00
0.000e+00
0.000e+00
0.000e+00
0.000e+00
0.000e+00
0.000e+00
0.000e+00
0.000e+00
0.000e+00
0.000e+00
0.000e+00
0.000e+00
0.000e+00
0.000e+00
0.000e+00
0.000e+00
0.000e+00
0.000e+00
0.000e+00
0.000e+00
0.000e+00
0.000e+00
0.000e+00
0.000e+00
0.000e+00
0.000e+00
0.000e+00
0.000e+00
0.000e+00
0.000e+00
0.000e+00
0.000e+00
0.000e+00
0.000e+00
0.000e+00
0.000e+00
0.000e+00
0.000e+00
0.000e+00
0.000e+00
0.000e+00
0.000e+00
0.000e+00
0.000e+00
0.000e+00
0.000e+00
0.000e+00
0.000e+00
0.000e+00
0.000e+00
0.000e+00
0.000e+00
0.000e+00
0.000e+00
0.000e+00
0.000e+00
0.000e+00
0.000e+00
0.000e+00
0.000e+00
0.000e+00
0.000e+00
0.000e+00
0.000e+00
0.000e+00
0.000e+00
0.000e+00
0.000e+00
0.000e+00
0.000e+00
0.000e+00
0.000e+00
0.000e+00
0.000e+00
0.000e+00
0.000e+00
0.000e+00
0.000e+00
0.000e+00
0.000e+00
0.000e+00
0.000e+00
0.000e+00
0.000e+00
0.000e+00
0.000e+00
0.000e+00
0.000e+00
0.000e+00
0.000e+00
0.000e+00
0.000e+00
0.000e+00
0.000e+00
0.000e+00
0.000e+00
0.000e+00
0.000e+00
0.000e+00
0.000e+00
0.000e+00
0.000e+00
0.000e+00
0.000e+00
0.000e+00
0.000e+00
0.000e+00
0.000e+00
0.000e+00
0.000e+00
0.000e+00
0.000e+00
0.000e+00
0.000e+00
0.000e+00
0.000e+00
0.000e+00
0.000e+00
0.000e+00
0.000e+00
0.000e+00
0.000e+00
0.000e+00
0.000e+00
0.000e+00
0.000e+00
0.000e+00
0.000e+00
0.000e+00
0.000e+00
0.000e+00
0.000e+00
0.000e+00
0.000e+00
0.000e+00
0.000e+00
0.000e+00
0.000e+00
0.000e+00
0.000e+00
0.000e+00
0.000e+00
0.000e+00
0.000e+00
0.000e+00
0.000e+00
0.000e+00
0.000e+00
0.000e+00
0.000e+00
0.000e+00
SCALARS v double 1
LOOKUP_TABLE default
0.000e+00
0.000e+00
0.000e+00
0.000e+00
0.000e+00
0.000e+00
0.000e+00
0.000e+00
0.000e+00
0.000e+00
0.000e+00
0.000e+00
0.000e+00
0.000e+00
0.000e+00
0.000e+00
0.000e+00
0.000e+00
0.000e+00
0.000e+00
0.000e+00
0.000e+00
0.000e+00
0.000e+00
0.000e+00
0.000e+00
0.000e+00
0.000e+00
0.000e+00
0.000e+00
0.000e+00
0.000e+00
0.000e+00
0.000e+00
0.000e+00
0.000e+00
0.000e+00
0.000e+00
0.000e+00
0.000e+00
0.000e+00
0.000e+00
0.000e+00
0.000e+00
0.000e+00
0.000e+00
0.000e+00
0.000e+00
0.000e+00
0.000e+00
0.000e+00
0.000e+00
0.000e+00
0.000e+00
0.000e+00
0.000e+00
0.000e+00
0.000e+00
0.000e+00
0.000e+00
0.000e+00
0.000e+00
0.000e+00
0.000e+00
0.000e+00
0.000e+00
0.000e+00
0.000e+00
0.000e+00
0.000e+00
0.000e+00
0.000e+00
0.000e+00
0.000e+00
0.000e+00
0.000e+00
0.000e+00
0.000e+00
0.000e+00
0.000e+00
0.000e+00
0.000e+00
0.000e+00
0.000e+00
0.000e+00
0.000e+00
0.000e+00
0.000e+00
0.000e+00
0.000e+00
0.000e+00
0.000e+00
0.000e+00
0.000e+00
0.000e+00
0.000e+00
0.000e+00
0.000e+00
0.000e+00
0.000e+00
0.000e+00
0.000e+00
0.000e+00
0.000e+00
0.000e+00
0.000e+00
0.000e+00
0.000e+00
0.000e+00
0.000e+00
0.000e+00
0.000e+00
0.000e+00
0.000e+00
0.000e+00
0.000e+00
0.000e+00
0.000e+00
0.000e+00
0.000e+00
0.000e+00
0.000e+00
0.000e+00
0.000e+00
0.000e+00
0.000e+00
0.000e+00
0.000e+00
0.000e+00
0.000e+00
0.000e+00
0.000e+00
0.000e+00
0.000e+00
0.000e+00
0.000e+00
0.000e+00
0.000e+00
0.000e+00
0.000e+00
0.000e+00
0.000e+00
0.000e+00
0.000e+00
0.000e+00
0.000e+00
0.000e+00
0.000e+00
0.000e+00
0.000e+00
0.000e+00
0.000e+00
0.000e+00
0.000e+00
0.000e+00
0.000e+00
0.000e+00
0.000e+00
0.000e+00
0.000e+00
0.000e+00
0.000e+00
0.000e+00
0.000e+00
0.000e+00
0.000e+00
0.000e+00
0.000e+00
0.000e+00
0.000e+00
0.000e+00
0.000e+00
0.000e+00
0.000e+00
0.000e+00
0.000e+00
0.000e+00
0.000e+00
0.000e+00
0.000e+00
0.000e+00
0.000e+00
0.000e+00
0.000e+00
0.000e+00
0.000e+00
0.000e+00
0.000e+00
0.000e+00
0.000e+00
0.000e+00
0.000e+00
0.000e+00
0.000e+00
0.000e+00
0.000e+00
0.000e+00
0.000e+00
0.000e+00
0.000e+00
0.000e+00
0.000e+00
0.000e+00
0.000e+00
0.000e+00
0.000e+00
0.000e+00
0.000e+00
0.000e+00
0.000e+00
0.000e+00
0.000e+00
0.000e+00
0.000e+00
0.000e+00
0.000e+00
0.000e+00
0.000e+00
0.000e+00
0.000e+00
0.000e+00
0.000e+00
0.000e+00
0.000e+00
0.000e+00
0.000e+00
0.000e+00
0.000e+00
0.000e+00
0.000e+00
0.000e+00
0.000e+00
0.000e+00
0.000e+00
0.000e+00
0.000e+00
0.000e+00
0.000e+00
0.000e+00
0.000e+00
0.000e+00
0.000e+00
SCALARS w double 1
LOOKUP_TABLE default
0.000e+00
0.000e+00
0.000e+00
-4.005e-04
0.000e+00
-1.279e-03
-3.432e-03
-1.069e-03
0.000e+00
0.000e+00
-2.161e-03
0.000e+00
-2.776e-03
-7.564e-03
-5.848e-03
0.000e+00
-2.995e-03
0.000e+00
-2.776e-03
-7.564e-03
-8.178e-03
0.000e+00
-2.161e-03
0.000e+00
-1.279e-03
-3.432e-03
-5.848e-03
0.000e+00
-4.005e-04
0.000e+00
0.000e+00
0.000e+00
-1.069e-03
0.000e+00
-1.459e-03
-4.744e-03
-5.310e-03
-1.620e-03
0.000e+00
-8.174e-03
-1.065e-02
-1.205e-02
-9.213e-03
-1.154e-02
-1.065e-02
-1.205e-02
-1.308e-02
-8.174e-03
-4.744e-03
-5.310e-03
-9.213e-03
-1.459e-03
0.000e+00
0.000e+00
-1.620e-03
0.000e+00
-1.663e-03
-5.458e-03
-5.310e-03
-1.620e-03
0.000e+00
-9.487e-03
-1.243e-02
-1.205e-02
-9.213e-03
-1.349e-02
-1.243e-02
-1.205e-02
-1.308e-02
-9.487e-03
-5.458e-03
-5.310e-03
-9.213e-03
-1.663e-03
0.000e+00
0.000e+00
-1.620e-03
0.000e+00
-1.459e-03
-4.744e-03
-3.432e-03
-1.069e-03
0.000e+00
-8.174e-03
-1.065e-02
-7.564e-03
-5.848e-03
-1.154e-02
-1.065e-02
-7.564e-03
-8.178e-03
-8.174e-03
-4.744e-03
-3.432e-03
-5.848e-03
-1.459e-03
0.000e+00
0.000e+00
-1.069e-03
0.000e+00
-4.005e-04
-1.279e-03
0.000e+00
0.000e+00
0.000e+00
-2.161e-03
-2.776e-03
0.000e+00
0.000e+00
-2.995e-03
-2.776e-03
0.000e+00
0.000e+00
-2.161e-03
-1.279e-03
0.000e+00
0.000e+00
-4.005e-04
0.000e+00
0.000e+00
0.000e+00
0.000e+00
0.000e+00
0.000e+00
0.000e+00
0.000e+00
0.000e+00
0.000e+00
0.000e+00
0.000e+00
0.000e+00
0.000e+00
0.000e+00
0.000e+00
0.000e+00
0.000e+00
0.000e+00
0.000e+00
0.000e+00
0.000e+00
0.000e+00
0.000e+00
0.000e+00
0.000e+00
0.000e+00
0.000e+00
0.000e+00
0.000e+00
0.000e+00
0.000e+00
0.000e+00
0.000e+00
0.000e+00
0.000e+00
0.000e+00
0.000e+00
0.000e+00
0.000e+00
0.000e+00
0.000e+00
0.000e+00
0.000e+00
0.000e+00
0.000e+00
0.000e+00
0.000e+00
0.000e+00
0.000e+00
0.000e+00
0.000e+00
0.000e+00
0.000e+00
0.000e+00
0.000e+00
0.000e+00
0.000e+00
0.000e+00
0.000e+00
0.000e+00
0.000e+00
0.000e+00
0.000e+00
0.000e+00
0.000e+00
0.000e+00
0.000e+00
0.000e+00
0.000e+00
0.000e+00
0.000e+00
0.000e+00
0.000e+00
0.000e+00
0.000e+00
0.000e+00
0.000e+00
0.000e+00
0.000e+00
0.000e+00
0.000e+00
0.000e+00
0.000e+00
0.000e+00
0.000e+00
0.000e+00
0.000e+00
0.000e+00
0.000e+00
0.000e+00
0.000e+00
0.000e+00
0.000e+00
0.000e+00
0.000e+00
0.000e+00
0.000e+00
0.000e+00
0.000e+00
0.000e+00
0.000e+00
0.000e+00
0.000e+00
0.000e+00
0.000e+00
0.000e+00
0.000e+00
0.000e+00
0.000e+00
0.000e+00
0.000e+00
0.000e+00
0.000e+00
0.000e+00
0.000e+00
0.000e+00
0.000e+00
0.000e+00
0.000e+00
0.000e+00
0.000e+00
0.000e+00
0.000e+00
SCALARS rotx double 1
LOOKUP_TABLE default
0.000e+00
0.000e+00
0.000e+00
-3.125e-02
0.000e+00
-3.877e-02
-1.042e-01
-8.278e-02
0.000e+00
0.000e+00
-3.186e-02
0.000e+00
-1.753e-02
-4.889e-02
-8.767e-02
0.000e+00
2.196e-16
0.000e+00
1.753e-02
4.889e-02
7.162e-16
0.000e+00
3.186e-02
0.000e+00
3.877e-02
1.042e-01
8.767e-02
0.000e+00
3.125e-02
0.000e+00
0.000e+00
0.000e+00
8.278e-02
0.000e+00
-1.134e-01
-1.469e-01
-1.663e-01
-1.262e-01
0.000e+00
-1.258e-01
-7.101e-02
-8.181e-02
-1.441e-01
3.612e-15
7.101e-02
8.181e-02
4.515e-15
1.258e-01
1.469e-01
1.663e-01
1.441e-01
1.134e-01
0.000e+00
0.000e+00
1.262e-01
0.000e+00
-1.296e-01
-1.714e-01
-1.663e-01
-1.262e-01
0.000e+00
-1.491e-01
-8.487e-02
-8.181e-02
-1.441e-01
2.707e-15
8.487e-02
8.181e-02
-1.329e-15
1.491e-01
1.714e-01
1.663e-01
1.441e-01
1.296e-01
0.000e+00
0.000e+00
1.262e-01
0.000e+00
-1.134e-01
-1.469e-01
-1.042e-01
-8.278e-02
0.000e+00
-1.258e-01
-7.101e-02
-4.889e-02
-8.767e-02
-1.871e-15
7.101e-02
4.889e-02
-2.616e-16
1.258e-01
1.469e-01
1.042e-01
8.767e-02
1.134e-01
0.000e+00
0.000e+00
8.278e-02
0.000e+00
-3.125e-02
-3.877e-02
0.000e+00
0.000e+00
0.000e+00
-3.186e-02
-1.753e-02
0.000e+00
0.000e+00
7.501e-18
1.753e-02
0.000e+00
0.000e+00
3.186e-02
3.877e-02
0.000e+00
0.000e+00
3.125e-02
0.000e+00
0.000e+00
0.000e+00
0.000e+00
0.000e+00
0.000e+00
0.000e+00
0.000e+00
0.000e+00
0.000e+00
0.000e+00
0.000e+00
0.000e+00
0.000e+00
0.000e+00
0.000e+00
0.000e+00
0.000e+00
0.000e+00
0.000e+00
0.000e+00
0.000e+00
0.000e+00
0.000e+00
0.000e+00
0.000e+00
0.000e+00
0.000e+00
0.000e+00
0.000e+00
0.000e+00
0.000e+00
0.000e+00
0.000e+00
0.000e+00
0.000e+00
0.000e+00
0.000e+00
0.000e+00
0.000e+00
0.000e+00
0.000e+00
0.000e+00
0.000e+00
0.000e+00
0.000e+00
0.000e+00
0.000e+00
0.000e+00
0.000e+00
0.000e+00
0.000e+00
0.000e+00
0.000e+00
0.000e+00
0.000e+00
0.000e+00
0.000e+00
0.000e+00
0.000e+00
0.000e+00
0.000e+00
0.000e+00
0.000e+00
0.000e+00
0.000e+00
0.000e+00
0.000e+00
0.000e+00
0.000e+00
0.000e+00
0.000e+00
0.000e+00
0.000e+00
0.000e+00
0.000e+00
0.000e+00
0.000e+00
0.000e+00
0.000e+00
0.000e+00
0.000e+00
0.000e+00
0.000e+00
0.000e+00
0.000e+00
0.000e+00
0.000e+00
0.000e+00
0.000e+00
0.000e+00
0.000e+00
0.000e+00
0.000e+00
0.000e+00
0.000e+00
0.000e+00
0.000e+00
0.000e+00
0.000e+00
0.000e+00
0.000e+00
0.000e+00
0.000e+00
0.000e+00
0.000e+00
0.000e+00
0.000e+00
0.000e+00
0.000e+00
0.000e+00
0.000e+00
0.000e+00
0.000e+00
0.000e+00
0.000e+00
0.000e+00
0.000e+00
0.000e+00
0.000e+00
0.000e+00
0.000e+00
0.000e+00
0.000e+00
SCALARS roty double 1
LOOKUP_TABLE default
0.000e+00
0.000e+00
0.000e+00
1.628e-02
0.000e+00
5.012e-02
3.577e-02
1.126e-02
0.000e+00
0.000e+00
8.463e-02
0.000e+00
1.088e-01
8.189e-02
6.230e-02
0.000e+00
1.173e-01
0.000e+00
1.088e-01
8.189e-02
8.906e-02
0.000e+00
8.463e-02
0.000e+00
5.012e-02
3.577e-02
6.230e-02
0.000e+00
1.628e-02
0.000e+00
0.000e+00
0.000e+00
1.126e-02
0.000e+00
4.922e-03
1.680e-02
5.937e-03
1.764e-03
0.000e+00
3.065e-02
4.116e-02
1.500e-02
1.097e-02
4.505e-02
4.116e-02
1.500e-02
1.652e-02
3.065e-02
1.680e-02
5.937e-03
1.097e-02
4.922e-03
0.000e+00
0.000e+00
1.764e-03
0.000e+00
-9.550e-17
-1.213e-15
-5.937e-03
-1.764e-03
0.000e+00
-5.430e-15
-8.579e-15
-1.500e-02
-1.097e-02
-7.278e-15
-4.992e-15
-1.500e-02
-1.652e-02
-2.521e-15
-1.601e-15
-5.937e-03
-1.097e-02
-5.450e-16
0.000e+00
0.000e+00
-1.764e-03
0.000e+00
-4.922e-03
-1.680e-02
-3.577e-02
-1.126e-02
0.000e+00
-3.065e-02
-4.116e-02
-8.189e-02
-6.230e-02
-4.505e-02
-4.116e-02
-8.189e-02
-8.906e-02
-3.065e-02
-1.680e-02
-3.577e-02
-6.230e-02
-4.922e-03
0.000e+00
0.000e+00
-1.126e-02
0.000e+00
-1.628e-02
-5.012e-02
0.000e+00
0.000e+00
0.000e+00
-8.463e-02
-1.088e-01
0.000e+00
0.000e+00
-1.173e-01
-1.088e-01
0.000e+00
0.000e+00
-8.463e-02
-5.012e-02
0.000e+00
0.000e+00
-1.628e-02
0.000e+00
0.000e+00
0.000e+00
0.000e+00
0.000e+00
0.000e+00
0.000e+00
0.000e+00
0.000e+00
0.000e+00
0.000e+00
0.000e+00
0.000e+00
0.000e+00
0.000e+00
0.000e+00
0.000e+00
0.000e+00
0.000e+00
0.000e+00
0.000e+00
0.000e+00
0.000e+00
0.000e+00
0.000e+00
0.000e+00
0.000e+00
0.000e+00
0.000e+00
0.000e+00
0.000e+00
0.000e+00
0.000e+00
0.000e+00
0.000e+00
0.000e+00
0.000e+00
0.000e+00
0.000e+00
0.000e+00
0.000e+00
0.000e+00
0.000e+00
0.000e+00
0.000e+00
0.000e+00
0.000e+00
0.000e+00
0.000e+00
0.000e+00
0.000e+00
0.000e+00
0.000e+00
0.000e+00
0.000e+00
0.000e+00
0.000e+00
0.000e+00
0.000e+00
0.000e+00
0.000e+00
0.000e+00
0.000e+00
0.000e+00
0.000e+00
0.000e+00
0.000e+00
0.000e+00
0.000e+00
0.000e+00
0.000e+00
0.000e+00
0.000e+00
0.000e+00
0.000e+00
0.000e+00
0.000e+00
0.000e+00
0.000e+00
0.000e+00
0.000e+00
0.000e+00
0.000e+00
0.000e+00
0.000e+00
0.000e+00
0.000e+00
0.000e+00
0.000e+00
0.000e+00
0.000e+00
0.000e+00
0.000e+00
0.000e+00
0.000e+00
0.000e+00
0.000e+00
0.000e+00
0.000e+00
0.000e+00
0.000e+00
0.000e+00
0.000e+00
0.000e+00
0.000e+00
0.000e+00
0.000e+00
0.000e+00
0.000e+00
0.000e+00
0.000e+00
0.000e+00
0.000e+00
0.000e+00
0.000e+00
0.000e+00
0.000e+00
0.000e+00
0.000e+00
0.000e+00
0.000e+00
0.000e+00
0.000e+00
0.000e+00
SCALARS rotz double 1
LOOKUP_TABLE default
0.000e+00
0.000e+00
0.000e+00
0.000e+00
0.000e+00
0.000e+00
0.000e+00
0.000e+00
0.000e+00
0.000e+00
0.000e+00
0.000e+00
0.000e+00
0.000e+00
0.000e+00
0.000e+00
0.000e+00
0.000e+00
0.000e+00
0.000e+00
0.000e+00
0.000e+00
0.000e+00
0.000e+00
0.000e+00
0.000e+00
0.000e+00
0.000e+00
0.000e+00
0.000e+00
0.000e+00
0.000e+00
0.000e+00
0.000e+00
0.000e+00
0.000e+00
0.000e+00
0.000e+00
0.000e+00
0.000e+00
0.000e+00
0.000e+00
0.000e+00
0.000e+00
0.000e+00
0.000e+00
0.000e+00
0.000e+00
0.000e+00
0.000e+00
0.000e+00
0.000e+00
0.000e+00
0.000e+00
0.000e+00
0.000e+00
0.000e+00
0.000e+00
0.000e+00
0.000e+00
0.000e+00
0.000e+00
0.000e+00
0.000e+00
0.000e+00
0.000e+00
0.000e+00
0.000e+00
0.000e+00
0.000e+00
0.000e+00
0.000e+00
0.000e+00
0.000e+00
0.000e+00
0.000e+00
0.000e+00
0.000e+00
0.000e+00
0.000e+00
0.000e+00
0.000e+00
0.000e+00
0.000e+00
0.000e+00
0.000e+00
0.000e+00
0.000e+00
0.000e+00
0.000e+00
0.000e+00
0.000e+00
0.000e+00
0.000e+00
0.000e+00
0.000e+00
0.000e+00
0.000e+00
0.000e+00
0.000e+00
0.000e+00
0.000e+00
0.000e+00
0.000e+00
0.000e+00
0.000e+00
0.000e+00
0.000e+00
0.000e+00
0.000e+00
0.000e+00
0.000e+00
0.000e+00
0.000e+00
0.000e+00
0.000e+00
0.000e+00
0.000e+00
0.000e+00
0.000e+00
0.000e+00
0.000e+00
0.000e+00
0.000e+00
0.000e+00
0.000e+00
0.000e+00
0.000e+00
0.000e+00
0.000e+00
0.000e+00
0.000e+00
0.000e+00
0.000e+00
0.000e+00
0.000e+00
0.000e+00
0.000e+00
0.000e+00
0.000e+00
0.000e+00
0.000e+00
0.000e+00
0.000e+00
0.000e+00
0.000e+00
0.000e+00
0.000e+00
0.000e+00
0.000e+00
0.000e+00
0.000e+00
0.000e+00
0.000e+00
0.000e+00
0.000e+00
0.000e+00
0.000e+00
0.000e+00
0.000e+00
0.000e+00
0.000e+00
0.000e+00
0.000e+00
0.000e+00
0.000e+00
0.000e+00
0.000e+00
0.000e+00
0.000e+00
0.000e+00
0.000e+00
0.000e+00
0.000e+00
0.000e+00
0.000e+00
0.000e+00
0.000e+00
0.000e+00
0.000e+00
0.000e+00
0.000e+00
0.000e+00
0.000e+00
0.000e+00
0.000e+00
0.000e+00
0.000e+00
0.000e+00
0.000e+00
0.000e+00
0.000e+00
0.000e+00
0.000e+00
0.000e+00
0.000e+00
0.000e+00
0.000e+00
0.000e+00
0.000e+00
0.000e+00
0.000e+00
0.000e+00
0.000e+00
0.000e+00
0.000e+00
0.000e+00
0.000e+00
0.000e+00
0.000e+00
0.000e+00
0.000e+00
0.000e+00
0.000e+00
0.000e+00
0.000e+00
0.000e+00
0.000e+00
0.000e+00
0.000e+00
0.000e+00
0.000e+00
0.000e+00
0.000e+00
0.000e+00
0.000e+00
0.000e+00
0.000e+00
0.000e+00
0.000e+00
0.000e+00
0.000e+00
0.000e+00
0.000e+00
0.000e+00
0.000e+00
0.000e+00
0.000e+00
0.000e+00
0.000e+00
0.000e+00
0.000e+00
SCALARS ex0 double 1
LOOKUP_TABLE default
0.000e+00
0.000e+00
0.000e+00
0.000e+00
0.000e+00
0.000e+00
0.000e+00
0.000e+00
0.000e+00
0.000e+00
0.000e+00
0.000e+00
0.000e+00
0.000e+00
0.000e+00
0.000e+00
0.000e+00
0.000e+00
0.000e+00
0.000e+00
0.000e+00
0.000e+00
0.000e+00
0.000e+00
0.000e+00
0.000e+00
0.000e+00
0.000e+00
0.000e+00
0.000e+00
0.000e+00
0.000e+00
0.000e+00
0.000e+00
0.000e+00
0.000e+00
0.000e+00
0.000e+00
0.000e+00
0.000e+00
0.000e+00
0.000e+00
0.000e+00
0.000e+00
0.000e+00
0.000e+00
0.000e+00
0.000e+00
0.000e+00
0.000e+00
0.000e+00
0.000e+00
0.000e+00
0.000e+00
0.000e+00
0.000e+00
0.000e+00
0.000e+00
0.000e+00
0.000e+00
0.000e+00
0.000e+00
0.000e+00
0.000e+00
0.000e+00
0.000e+00
0.000e+00
0.000e+00
0.000e+00
0.000e+00
0.000e+00
0.000e+00
0.000e+00
0.000e+00
0.000e+00
0.000e+00
0.000e+00
0.000e+00
0.000e+00
0.000e+00
0.000e+00
0.000e+00
0.000e+00
0.000e+00
0.000e+00
0.000e+00
0.000e+00
0.000e+00
0.000e+00
0.000e+00
0.000e+00
0.000e+00
0.000e+00
0.000e+00
0.000e+00
0.000e+00
0.000e+00
0.000e+00
0.000e+00
0.000e+00
0.000e+00
0.000e+00
0.000e+00
0.000e+00
0.000e+00
0.000e+00
0.000e+00
0.000e+00
0.000e+00
0.000e+00
0.000e+00
0.000e+00
0.000e+00
0.000e+00
0.000e+00
0.000e+00
0.000e+00
0.000e+00
0.000e+00
0.000e+00
0.000e+00
0.000e+00
0.000e+00
0.000e+00
0.000e+00
0.000e+00
0.000e+00
0.000e+00
0.000e+00
0.000e+00
0.000e+00
0.000e+00
0.000e+00
0.000e+00
0.000e+00
0.000e+00
0.000e+00
0.000e+00
0.000e+00
0.000e+00
0.000e+00
0.000e+00
0.000e+00
0.000e+00
0.000e+00
0.000e+00
0.000e+00
0.000e+00
0.000e+00
0.000e+00
0.000e+00
0.000e+00
0.000e+00
0.000e+00
0.000e+00
0.000e+00
0.000e+00
0.000e+00
0.000e+00
0.000e+00
0.000e+00
0.000e+00